ITEM: TIMESTEP
0
ITEM: NUMBER OF ATOMS
1000
ITEM: BOX BOUNDS pp pp pp
-26.8236 26.8236
-26.8236 26.8236
-26.8236 26.8236
ITEM: ATOMS id type x y z quati quatj quatk quatw c_shape[1] c_shape[2] c_shape[3]
1 1 -16.9679 8.93254 3.90918 0.0778100096 -0.490970112 0.0838860224 0.8636301312 3.1944000768 3.1944000768 1.5983500288
2 1 -25.5786 7.54743 -9.1398 0.4786741248 -0.8174721536 0.1501410304 -0.282963072 3.1944000768 3.1944000768 1.5983500288
3 1 17.6872 -7.19446 -12.8893 -0.0828640512 0.7863854592 0.6119093248 0.0172730112 3.1944000768 3.1944000768 1.5983500288
4 1 -15.8431 21.1305 -23.6228 0.0775890176 0.8949272576 0.0858820224 0.4309401088 3.1944000768 3.1944000768 1.5983500288
5 1 13.5077 -21.8043 2.46135 0.7609277952 0.5641248768 0.16746496 0.2733269248 3.1944000768 3.1944000768 1.5983500288
6 1 14.7259 -11.9532 -25.4314 -0.0275260032 -0.5548590592 -0.5585710592 -0.6159320576 3.1944000768 3.1944000768 1.5983500288
7 1 25.4859 25.4237 1.77234 0.4816901632 0.7373302784 -0.3207050752 -0.348521088 3.1944000768 3.1944000768 1.5983500288
8 1 22.967 10.5895 14.8113 0.3688000256 0.356395008 -0.480715008 -0.711254016 3.1944000768 3.1944000768 1.5983500288
9 1 -21.3922 16.9604 -3.72369 -0.2030720256 -0.7141541376 -0.0220700032 -0.6695211008 3.1944000768 3.1944000768 1.5983500288
10 1 14.5234 -11.6709 -14.6852 -0.7383749632 0.0552309952 -0.6718729216 0.0184049984 3.1944000768 3.1944000768 1.5983500288
11 1 -17.8529 -6.46951 -15.2284 0.2168949248 -0.2231749376 0.9500786688 0.022361992 3.1944000768 3.1944000768 1.5983500288
12 1 15.0013 5.64025 9.94775 -0.8087305216 0.0091649944 0.5347216896 -0.2448338688 3.1944000768 3.1944000768 1.5983500288
13 1 -12.7686 7.48852 26.689 -0.8307651072 0.3293110528 -0.430892032 0.1253620096 3.1944000768 3.1944000768 1.5983500288
14 1 -10.3309 18.0844 16.7606 0.7401859072 0.1547999872 0.0381479968 -0.6532279296 3.1944000768 3.1944000768 1.5983500288
15 1 8.01372 -14.3714 1.65903 0.778640128 0.3352770816 0.4795860992 0.2265080576 3.1944000768 3.1944000768 1.5983500288
16 1 19.8293 26.0571 0.73896 -0.2699218944 -0.0270699904 0.7942627328 -0.543650816 3.1944000768 3.1944000768 1.5983500288
17 1 -4.21056 -10.5195 -9.46601 0.3553601024 -0.2842860544 0.8503532032 -0.2641970432 3.1944000768 3.1944000768 1.5983500288
18 1 0.16599 -11.3638 -0.2336 -0.70994304 0.5981720576 0.3655010048 0.0676760064 3.1944000768 3.1944000768 1.5983500288
19 1 -14.77 7.03387 -12.0197 -0.8479753728 0.5104752128 0.1208680448 -0.0757880256 3.1944000768 3.1944000768 1.5983500288
20 1 14.6339 4.35296 0.07892 -0.6319280128 -0.2891069952 -0.5004169728 -0.5163980288 3.1944000768 3.1944000768 1.5983500288
21 1 -13.03 2.41396 -17.2138 -0.5584240128 -0.6814870016 -0.376928 -0.2857680128 3.1944000768 3.1944000768 1.5983500288
22 1 25.6256 10.9921 25.2114 0.5531710976 0.3906950656 0.5292920832 0.5110861312 3.1944000768 3.1944000768 1.5983500288
23 1 -21.1143 -3.69876 -18.8069 0.8364632064 -0.4744091648 0.2394520832 -0.13389504 3.1944000768 3.1944000768 1.5983500288
24 1 -17.2651 -26.2781 -14.8431 -0.6325398016 -0.2948329472 0.3488849152 -0.6254967808 3.1944000768 3.1944000768 1.5983500288
25 1 13.7393 -5.70433 -16.5245 -0.6547428352 -0.1221999616 -0.6710418432 -0.3257019136 3.1944000768 3.1944000768 1.5983500288
26 1 -5.49614 -22.3233 7.9137 0.7942882304 -0.5589351424 0.0464760128 0.2335330816 3.1944000768 3.1944000768 1.5983500288
27 1 -11.0682 0.89319 -12.6729 -0.483821824 0.8210266624 0.1681509504 0.2521049088 3.1944000768 3.1944000768 1.5983500288
28 1 -25.7766 -24.0256 -23.6639 0.0075339976 0.7215547392 -0.366917888 0.5870887424 3.1944000768 3.1944000768 1.5983500288
29 1 17.0052 -2.49369 15.8441 -0.22925312 0.1358930816 -0.9300355072 0.2530021376 3.1944000768 3.1944000768 1.5983500288
30 1 -24.9865 -18.2414 -19.0521 -0.3225010944 -0.0196670048 -0.3613140992 0.8746761216 3.1944000768 3.1944000768 1.5983500288
31 1 1.77814 -15.7218 -11.8969 -0.3577080064 0.6079859712 0.0803190016 0.704235008 3.1944000768 3.1944000768 1.5983500288
32 1 -1.16322 -18.303 -4.5213 0.4341449216 -0.6029089792 0.4925709312 0.453202944 3.1944000768 3.1944000768 1.5983500288
33 1 4.0468 -24.4662 15.247 0.4520941056 0.3322450944 0.631389184 0.5353241088 3.1944000768 3.1944000768 1.5983500288
34 1 3.09129 -14.56 0.04922 0.2174870016 0.7525709824 0.2925210112 -0.5484230144 3.1944000768 3.1944000768 1.5983500288
35 1 3.31657 -9.34209 20.082 -0.117525056 0.0214660096 -0.594475264 -0.7951894016 3.1944000768 3.1944000768 1.5983500288
36 1 -3.1495 19.8325 9.19926 -0.5889870336 -0.5356770816 0.603693056 0.0412190048 3.1944000768 3.1944000768 1.5983500288
37 1 -16.0261 -8.35306 7.18235 0.3680450304 0.5358500352 -0.5839800832 -0.4861840384 3.1944000768 3.1944000768 1.5983500288
38 1 1.28655 10.8394 10.3423 0.3354148608 -0.0366059808 0.0825269568 0.9377345536 3.1944000768 3.1944000768 1.5983500288
39 1 1.4055 -10.4725 -13.9237 0.0632470336 -0.5849532416 -0.7994993152 -0.1209560576 3.1944000768 3.1944000768 1.5983500288
40 1 0.9468 -12.8248 5.10158 0.6900271616 -0.2465920512 0.644102144 0.2195160576 3.1944000768 3.1944000768 1.5983500288
41 1 -8.94401 11.5744 -6.29137 -0.277046016 0.7423300608 0.2410710272 0.5604250624 3.1944000768 3.1944000768 1.5983500288
42 1 -7.09469 4.51995 0.92299 0.4415990272 0.3911810048 0.791808 -0.158139008 3.1944000768 3.1944000768 1.5983500288
43 1 -15.2167 -22.4713 -23.1673 0.439381248 -0.1506260736 0.4448602624 0.7657384448 3.1944000768 3.1944000768 1.5983500288
44 1 1.0483 22.1372 10.8954 0.5539658752 0.8072288256 -0.0611929856 0.1943169536 3.1944000768 3.1944000768 1.5983500288
45 1 -15.0258 1.86061 -8.42689 -0.1872410752 -0.4467231744 -0.8582643712 -0.169592064 3.1944000768 3.1944000768 1.5983500288
46 1 -11.1078 -3.23916 -20.7388 0.5536129536 0.3025399808 0.6090609664 0.4806529536 3.1944000768 3.1944000768 1.5983500288
47 1 -8.64143 -8.52351 -19.0426 0.8100539904 -0.2909890048 -0.2502919936 0.443273984 3.1944000768 3.1944000768 1.5983500288
48 1 -6.22606 -3.80801 -18.6452 -0.9896563712 -0.09218704 0.0425870208 -0.1013320448 3.1944000768 3.1944000768 1.5983500288
49 1 20.9623 20.0474 -23.3992 -0.1508509312 0.3375078656 0.7072047616 -0.602655744 3.1944000768 3.1944000768 1.5983500288
50 1 11.177 20.0281 -15.7448 -0.918517248 -0.0252980048 0.3538670848 0.1745400448 3.1944000768 3.1944000768 1.5983500288
51 1 18.8806 1.99608 -11.3684 0.2319181056 0.1389060608 -0.4268161536 0.8629873664 3.1944000768 3.1944000768 1.5983500288
52 1 7.05027 -13.3688 12.9053 -0.1951109376 -0.3050408704 -0.9223906304 -0.1344519552 3.1944000768 3.1944000768 1.5983500288
53 1 6.47401 -1.19731 -18.5387 -0.2671089408 0.8443598336 0.0573009856 0.4608968704 3.1944000768 3.1944000768 1.5983500288
54 1 -12.778 24.8298 5.12982 0.0991120192 -0.7898381824 0.3597030912 -0.4867710976 3.1944000768 3.1944000768 1.5983500288
55 1 -18.9509 2.23645 16.286 0.3784910336 0.7701080576 -0.2156790272 -0.4660050432 3.1944000768 3.1944000768 1.5983500288
56 1 16.6531 -3.80458 -3.00324 0.3126649088 -0.17260896 -0.9304748032 -0.0816299776 3.1944000768 3.1944000768 1.5983500288
57 1 15.6329 4.16479 -6.59699 0.7764097024 -0.3951048448 -0.2314979072 0.4329998336 3.1944000768 3.1944000768 1.5983500288
58 1 3.75763 -7.87187 -24.5339 -0.5896358912 -0.5706898432 -0.5691648512 0.0519049888 3.1944000768 3.1944000768 1.5983500288
59 1 22.9099 -7.90659 -4.45668 0.3371671552 0.1506910592 -0.929256448 0.0096470032 3.1944000768 3.1944000768 1.5983500288
60 1 20.2138 -22.8683 9.89312 0.3533360384 -0.743747072 0.250347008 0.5092350976 3.1944000768 3.1944000768 1.5983500288
61 1 8.84925 1.66099 -0.94738 0.9755441152 -0.0787190144 0.2017200256 -0.037763008 3.1944000768 3.1944000768 1.5983500288
62 1 -0.54924 23.5064 -14.7926 -0.5599789568 -0.3366619648 0.7515408896 -0.0909319872 3.1944000768 3.1944000768 1.5983500288
63 1 14.5434 17.0756 19.8394 0.8200439808 0.1392879872 -0.0957909952 0.546764032 3.1944000768 3.1944000768 1.5983500288
64 1 10.8319 19.6565 -20.202 0.368384 0.1339820032 0.9061229568 -0.1590070016 3.1944000768 3.1944000768 1.5983500288
65 1 -15.7789 -2.54064 -20.0306 -0.1888241152 0.7852064768 -0.4828893184 0.3385472 3.1944000768 3.1944000768 1.5983500288
66 1 -15.7249 -16.7136 8.49691 -0.7082070016 0.386448 -0.0990210048 -0.5824909824 3.1944000768 3.1944000768 1.5983500288
67 1 -7.14382 21.4533 -8.43268 -0.1602240896 -0.3761531904 -0.9060204544 -0.1093800576 3.1944000768 3.1944000768 1.5983500288
68 1 1.57387 20.2383 5.96927 0.1270269696 0.5989489152 -0.7353818624 -0.2904099584 3.1944000768 3.1944000768 1.5983500288
69 1 20.797 12.3298 -26.5021 0.326384 -0.8282059776 0.4415369728 0.1122199936 3.1944000768 3.1944000768 1.5983500288
70 1 -3.1619 -18.6468 -25.5355 0.1300119424 0.0633029696 0.9408724992 0.3063468544 3.1944000768 3.1944000768 1.5983500288
71 1 5.45902 24.584 -6.17003 0.1518170112 -0.253857024 0.7548981248 -0.5853520384 3.1944000768 3.1944000768 1.5983500288
72 1 -3.98833 9.75979 13.6635 0.488385792 -0.4651917824 0.6225406976 0.3968868352 3.1944000768 3.1944000768 1.5983500288
73 1 -13.4732 -16.8144 -7.43463 0.170660992 0.4264969472 0.3888759296 -0.7985928704 3.1944000768 3.1944000768 1.5983500288
74 1 17.8733 13.7689 15.0014 -0.28347392 -0.196684928 -0.0095649968 -0.93854464 3.1944000768 3.1944000768 1.5983500288
75 1 26.3234 25.2776 26.0796 0.5079038976 -0.5299348992 0.073785984 0.6750988288 3.1944000768 3.1944000768 1.5983500288
76 1 -13.9927 -18.4747 -18.5742 -0.0334269888 0.0638959808 -0.9697445888 -0.233227904 3.1944000768 3.1944000768 1.5983500288
77 1 14.4095 5.91773 -25.5443 -0.7356849664 -0.4520829952 -0.1481389952 0.4821239808 3.1944000768 3.1944000768 1.5983500288
78 1 23.5556 -17.9155 -20.4029 -0.2654500096 0.4823710208 -0.3313190144 0.7662130176 3.1944000768 3.1944000768 1.5983500288
79 1 19.8272 4.62903 1.80903 -0.7934222848 -0.2082770816 -0.093460032 -0.5642401792 3.1944000768 3.1944000768 1.5983500288
80 1 -26.2184 -4.00404 -1.38403 0.259523072 0.2285270528 -0.9299042304 -0.125305024 3.1944000768 3.1944000768 1.5983500288
81 1 19.9074 -21.8696 -22.3839 -0.661309952 -0.1267829888 0.5541569536 0.4893929472 3.1944000768 3.1944000768 1.5983500288
82 1 25.2154 19.9326 4.93493 -0.2360691456 -0.1027610688 -0.8731276288 -0.4139562496 3.1944000768 3.1944000768 1.5983500288
83 1 17.7329 -0.66678 9.63737 -0.5460470784 0.0598320128 0.8338401792 0.054435008 3.1944000768 3.1944000768 1.5983500288
84 1 -18.3361 12.6302 23.7903 0.8600829952 0.4480189952 -0.2390480128 0.0489110016 3.1944000768 3.1944000768 1.5983500288
85 1 -19.0946 18.2631 -19.9616 -0.4712801792 0.0274740064 -0.8742462464 -0.1132860416 3.1944000768 3.1944000768 1.5983500288
86 1 6.40317 10.3852 14.4167 0.6164876288 0.1720829056 -0.3382358016 0.6898745856 3.1944000768 3.1944000768 1.5983500288
87 1 0.19565 -8.3165 -8.97142 0.0797130112 0.6834930688 0.3762490112 0.620419072 3.1944000768 3.1944000768 1.5983500288
88 1 -19.7458 2.96538 -9.02086 -0.3820292352 0.2614861824 -0.4753052672 0.7481734656 3.1944000768 3.1944000768 1.5983500288
89 1 20.6742 -0.76249 -3.86216 -0.9511248896 0.1458759936 -0.2465289728 0.1153479808 3.1944000768 3.1944000768 1.5983500288
90 1 -9.3432 -23.4745 4.5575 -0.8105698304 0.2158359552 0.225394944 -0.495568896 3.1944000768 3.1944000768 1.5983500288
91 1 -22.4139 24.4823 2.4781 0.469554176 -0.7848952832 -0.0444290144 0.401851136 3.1944000768 3.1944000768 1.5983500288
92 1 9.66572 7.81564 -23.0529 0.7438882816 -0.3762361088 0.3235010816 0.4476871168 3.1944000768 3.1944000768 1.5983500288
93 1 2.55573 17.9461 -14.7857 0.7336192512 0.2503601408 -0.4825032192 0.4078151936 3.1944000768 3.1944000768 1.5983500288
94 1 -22.8111 22.2039 16.9063 0.3238510848 -0.3504270848 -0.8543561728 0.2059050496 3.1944000768 3.1944000768 1.5983500288
95 1 16.579 22.5621 -9.74161 -0.1506390272 0.528176128 0.170364032 -0.8181161472 3.1944000768 3.1944000768 1.5983500288
96 1 -18.0768 -17.5527 -14.4738 0.6736879104 -0.1097449856 -0.6041929216 0.4111589376 3.1944000768 3.1944000768 1.5983500288
97 1 13.8022 -2.67037 12.8077 0.1709559552 -0.1955469568 0.955018752 0.1430899712 3.1944000768 3.1944000768 1.5983500288
98 1 -21.3921 2.68862 -15.3024 0.7059972096 0.3427061248 -0.4189301504 -0.4567471616 3.1944000768 3.1944000768 1.5983500288
99 1 3.31228 23.5765 18.6966 -0.8222581248 -0.354269056 0.2982920704 0.3307670528 3.1944000768 3.1944000768 1.5983500288
100 1 26.3643 -2.35463 20.3843 0.903674368 -0.3241001472 -0.1384220544 -0.2432510976 3.1944000768 3.1944000768 1.5983500288
101 1 4.12546 -16.3046 9.4565 -7.4599981056e-04 -0.4213529344 -0.4133489152 0.8072198144 3.1944000768 3.1944000768 1.5983500288
102 1 -8.89152 10.4021 1.92309 0.4904519168 0.059500992 -0.4672659456 0.7331979264 3.1944000768 3.1944000768 1.5983500288
103 1 -10.046 -23.467 -26.1779 -0.5340628992 -0.2551699456 -0.7705058816 -0.2366129664 3.1944000768 3.1944000768 1.5983500288
104 1 19.6673 -11.2957 -12.7343 -0.3775231232 0.3427740928 0.4745751552 0.7174682624 3.1944000768 3.1944000768 1.5983500288
105 1 11.5521 -4.08218 -4.27074 0.3119068672 0.8076397056 -0.2306369024 -0.4441158656 3.1944000768 3.1944000768 1.5983500288
106 1 26.047 -7.46415 8.67708 0.556329984 -0.4276619264 0.475003904 -0.5310119424 3.1944000768 3.1944000768 1.5983500288
107 1 17.5454 -15.5349 23.5946 0.0829919808 -0.208971968 0.8982247424 0.377670912 3.1944000768 3.1944000768 1.5983500288
108 1 -22.6547 9.96289 -4.07026 0.8967488512 0.0703929984 0.4361059328 0.0264159968 3.1944000768 3.1944000768 1.5983500288
109 1 19.2293 -22.5495 4.02688 0.6870569472 0.4308909568 0.0372639968 -0.5838639104 3.1944000768 3.1944000768 1.5983500288
110 1 9.19325 -3.72186 -14.1942 0.1097999872 -0.5213349376 0.74269696 0.4056539648 3.1944000768 3.1944000768 1.5983500288
111 1 -1.2028 -25.1493 23.4587 -0.8687951872 0.423513088 -0.2286310656 -0.1164450304 3.1944000768 3.1944000768 1.5983500288
112 1 -8.51323 20.7705 3.58664 -0.3043379712 -0.772389888 0.538109952 0.1457049856 3.1944000768 3.1944000768 1.5983500288
113 1 -12.5769 8.0158 0.51308 0.7589629952 0.186672 -0.442443008 0.4397420032 3.1944000768 3.1944000768 1.5983500288
114 1 5.05799 -3.93791 -2.62925 0.3362398976 0.8112728064 -0.45317888 -0.1529969664 3.1944000768 3.1944000768 1.5983500288
115 1 20.4448 17.6734 24.4774 -0.200899968 0.510236928 0.6131379712 0.5686469632 3.1944000768 3.1944000768 1.5983500288
116 1 -25.1576 -26.5129 6.1227 0.3214140928 -0.2386790656 -0.8007611392 0.44554112 3.1944000768 3.1944000768 1.5983500288
117 1 -10.2941 -3.93283 -3.61458 0.0127559984 0.9505929216 0.0215869968 -0.3094259712 3.1944000768 3.1944000768 1.5983500288
118 1 16.4659 -16.6977 -1.4216 0.783583232 -0.5443321856 0.0554680128 0.29431808 3.1944000768 3.1944000768 1.5983500288
119 1 2.51759 -21.3731 26.1842 0.0140929968 -0.1738439552 0.8210098176 0.5436198912 3.1944000768 3.1944000768 1.5983500288
120 1 0.20857 -25.3542 -24.396 0.7323897344 -0.3216968704 -0.0764549696 0.5952067584 3.1944000768 3.1944000768 1.5983500288
121 1 7.05305 -10.4232 -2.42635 0.5571439616 -0.7294319616 0.183731008 -0.3517990144 3.1944000768 3.1944000768 1.5983500288
122 1 -17.5814 15.6322 -14.7953 -0.03402 -0.7062269952 0.4462369792 -0.548596992 3.1944000768 3.1944000768 1.5983500288
123 1 19.0674 -21.7938 25.6091 -0.6407752192 -0.7328861696 0.2231940608 0.0496930112 3.1944000768 3.1944000768 1.5983500288
124 1 15.3023 -11.4482 21.1614 -0.24080512 0.5763062784 -0.64112128 0.4459232256 3.1944000768 3.1944000768 1.5983500288
125 1 -4.5894 0.58508 -12.4914 0.023867 -0.5349740032 -0.2019910016 -0.8200200192 3.1944000768 3.1944000768 1.5983500288
126 1 -5.80074 -0.52987 -5.40609 -0.3295837952 -0.4339417088 0.4630547456 0.6990345728 3.1944000768 3.1944000768 1.5983500288
127 1 2.95875 -0.2889 0.15714 -0.741208576 -0.6549605888 0.1222869248 -0.0817459456 3.1944000768 3.1944000768 1.5983500288
128 1 20.2087 -10.9586 10.6821 0.029472016 0.5818502656 0.118624064 0.8040584192 3.1944000768 3.1944000768 1.5983500288
129 1 -1.714 5.31686 9.87817 0.1785180032 -0.2476740096 0.034596 -0.9516260352 3.1944000768 3.1944000768 1.5983500288
130 1 22.8767 1.00385 -7.39892 -0.1620110336 -0.3264540672 -0.3663250432 0.856146176 3.1944000768 3.1944000768 1.5983500288
131 1 -22.3905 -24.6745 15.9825 -0.2701941504 -0.07111904 0.835968512 -0.4723282944 3.1944000768 3.1944000768 1.5983500288
132 1 -7.08985 -12.7405 -23.7224 -0.2823490304 0.102862016 0.3673190144 -0.8802130944 3.1944000768 3.1944000768 1.5983500288
133 1 -9.26533 14.6147 -21.5308 0.8340829184 0.4017469184 0.3067829504 0.2208829696 3.1944000768 3.1944000768 1.5983500288
134 1 -11.7752 -11.6676 -7.39844 0.0927599872 -0.6286979072 -0.7403629568 0.2190829568 3.1944000768 3.1944000768 1.5983500288
135 1 -8.57973 3.11777 14.7091 -0.0038080004 -0.617912064 -0.683875072 -0.3879240448 3.1944000768 3.1944000768 1.5983500288
136 1 19.6181 11.47 -17.6203 -0.09308704 -0.3777901568 0.9179833344 0.0769150336 3.1944000768 3.1944000768 1.5983500288
137 1 -10.906 -13.2304 3.62134 -0.5431729664 0.2822459648 0.574921984 0.5429229056 3.1944000768 3.1944000768 1.5983500288
138 1 -23.6219 14.2806 24.5259 0.323388032 0.5943660544 -0.0227570016 -0.7359560704 3.1944000768 3.1944000768 1.5983500288
139 1 -3.16778 7.41797 1.74555 -0.1206610176 0.6341801472 -0.7337521152 -0.2118120448 3.1944000768 3.1944000768 1.5983500288
140 1 -22.2283 -11.6829 -12.0453 -0.1935920896 -0.6590362624 0.0300300128 -0.726148352 3.1944000768 3.1944000768 1.5983500288
141 1 3.77234 -21.9191 -12.9929 0.8027288064 0.1435419776 -0.5754968576 -0.0618519872 3.1944000768 3.1944000768 1.5983500288
142 1 15.2008 -26.2634 5.65519 0.3507062016 0.464681216 -0.5209863168 0.6242193408 3.1944000768 3.1944000768 1.5983500288
143 1 25.3895 4.23252 -24.6148 -0.5054589952 -0.4410209792 -0.7385020416 -0.0680179968 3.1944000768 3.1944000768 1.5983500288
144 1 9.08206 -12.5859 16.2416 -0.7430530048 0.3675700224 0.1311340032 -0.5436620288 3.1944000768 3.1944000768 1.5983500288
145 1 26.0048 10.2804 6.86156 -0.413942016 0.5771330048 -0.7026960384 0.042282 3.1944000768 3.1944000768 1.5983500288
146 1 7.60281 -10.2792 6.31373 -0.132054016 -0.7424930304 -0.339852032 0.5619310592 3.1944000768 3.1944000768 1.5983500288
147 1 -8.9571 -7.63467 -8.35819 0.2100069248 -0.5843977216 0.63518976 0.4592498176 3.1944000768 3.1944000768 1.5983500288
148 1 -24.0332 -10.2263 0.09257 -0.3281100288 -0.863748096 -0.1799880064 -0.3374720256 3.1944000768 3.1944000768 1.5983500288
149 1 13.6967 -26.1819 20.4203 -0.8604420096 0.4842540032 0.0423500032 0.1527879936 3.1944000768 3.1944000768 1.5983500288
150 1 2.18303 0.51987 -17.6394 0.2451449088 -0.1233939584 -0.8488997376 0.45171584 3.1944000768 3.1944000768 1.5983500288
151 1 12.6433 9.02865 -5.60772 -0.4280121856 -0.2218770944 0.518645248 -0.7061042688 3.1944000768 3.1944000768 1.5983500288
152 1 1.12716 -6.89097 -2.9551 -0.2162529792 0.858245888 0.2228989696 0.4086129408 3.1944000768 3.1944000768 1.5983500288
153 1 13.7175 26.6958 -10.5969 0.7525202432 0.0191140064 -0.6472602112 -0.1200090368 3.1944000768 3.1944000768 1.5983500288
154 1 -24.919 -2.68255 -16.4556 -0.4379579904 0.8261890048 -0.3541659904 -0.01308 3.1944000768 3.1944000768 1.5983500288
155 1 26.527 25.8794 16.0715 0.2107339264 0.0317659904 -0.9374476288 -0.275270912 3.1944000768 3.1944000768 1.5983500288
156 1 7.09871 7.17165 -13.5333 -0.495970816 -0.511009792 0.7008087552 0.0418219872 3.1944000768 3.1944000768 1.5983500288
157 1 25.4932 -12.9451 9.27241 -0.3133461248 0.6789492736 0.2510111232 0.6146831872 3.1944000768 3.1944000768 1.5983500288
158 1 15.1443 -20.5335 6.72169 -0.7275152384 0.6208302592 -0.2880630784 -0.0480740192 3.1944000768 3.1944000768 1.5983500288
159 1 11.9664 12.3548 18.2956 -0.2868201472 0.8309243904 0.4760352768 0.026255016 3.1944000768 3.1944000768 1.5983500288
160 1 4.01961 6.23356 -18.6405 0.3129081088 0.8103532544 -0.489374208 0.077000032 3.1944000768 3.1944000768 1.5983500288
161 1 -23.3146 -14.7602 8.12005 -0.2681560832 0.6163212288 0.6262572032 -0.3950221312 3.1944000768 3.1944000768 1.5983500288
162 1 20.8013 -4.15003 -24.1633 0.6594281984 0.171546048 -0.3193700864 -0.6585811968 3.1944000768 3.1944000768 1.5983500288
163 1 6.19581 -26.7893 2.49781 0.174653952 0.2222459392 0.7616267264 -0.5831187968 3.1944000768 3.1944000768 1.5983500288
164 1 -5.44687 -13.705 0.64116 0.1629299584 -0.2589379584 0.8521238016 -0.4246059008 3.1944000768 3.1944000768 1.5983500288
165 1 16.0202 16.4315 -23.4462 0.3981038592 -0.1156829568 -0.1107979648 0.9032467456 3.1944000768 3.1944000768 1.5983500288
166 1 -18.8784 -21.2602 1.48377 0.2241120256 0.2288310272 -0.8885791744 -0.328386048 3.1944000768 3.1944000768 1.5983500288
167 1 19.5107 16.6324 -13.5584 -0.6361800192 0.2761170176 -0.5168100352 0.5019380224 3.1944000768 3.1944000768 1.5983500288
168 1 -22.8317 26.12 -13.6702 -0.6449139712 0.6938629632 -0.2195609856 0.2333090048 3.1944000768 3.1944000768 1.5983500288
169 1 8.30317 -2.05394 10.8351 -0.6081596416 -0.5201417216 0.5034906624 -0.3257167872 3.1944000768 3.1944000768 1.5983500288
170 1 -8.88483 20.791 -19.5809 0.5160789504 0.4366949376 0.0115339992 -0.7367679488 3.1944000768 3.1944000768 1.5983500288
171 1 24.125 -8.22872 -10.4834 0.1493500032 0.7106810368 0.4968439808 -0.4751560192 3.1944000768 3.1944000768 1.5983500288
172 1 -3.30283 -8.25004 18.7242 0.1615799552 -0.3903519232 0.3729759232 0.8260788224 3.1944000768 3.1944000768 1.5983500288
173 1 -6.83469 8.73972 -2.53173 0.0880350016 0.233408 -0.968129024 -0.0222909984 3.1944000768 3.1944000768 1.5983500288
174 1 -12.3277 7.23697 17.9543 0.1792560256 0.151798016 -0.4477190656 0.862770176 3.1944000768 3.1944000768 1.5983500288
175 1 5.07845 -21.9101 6.84054 -0.0544780224 0.5475031552 0.0684840256 0.832215296 3.1944000768 3.1944000768 1.5983500288
176 1 -2.68425 -21.1169 -20.6972 -0.8843459584 0.033888 -0.4458429952 0.1341929984 3.1944000768 3.1944000768 1.5983500288
177 1 22.3651 -3.79647 16.8097 0.1654220544 -0.099401024 0.1192090368 -0.9739323392 3.1944000768 3.1944000768 1.5983500288
178 1 -3.46997 12.3499 3.13794 0.328646784 0.046014976 -0.4700847104 0.8178595328 3.1944000768 3.1944000768 1.5983500288
179 1 -13.6977 23.5245 18.1337 -0.9255378944 -0.1222969856 0.2447939584 -0.2617229824 3.1944000768 3.1944000768 1.5983500288
180 1 7.59784 14.3782 -5.52018 -0.4628099072 0.0528609888 -0.028224992 -0.8844297216 3.1944000768 3.1944000768 1.5983500288
181 1 -21.4372 -1.70212 21.2333 -0.4343752192 0.2899941632 -0.3214171648 0.789881344 3.1944000768 3.1944000768 1.5983500288
182 1 18.8896 -10.7559 25.8749 0.6898799616 -0.189995968 -0.2672469504 0.645403904 3.1944000768 3.1944000768 1.5983500288
183 1 -22.2862 16.2114 -12.5242 -0.9600929792 0.045716 0.2731220224 0.0391910016 3.1944000768 3.1944000768 1.5983500288
184 1 -14.5785 21.1219 -18.1816 0.7957171712 0.4109130752 0.3457800704 -0.2800370432 3.1944000768 3.1944000768 1.5983500288
185 1 20.4403 -0.1299 19.7917 -0.604186112 -0.1488500224 0.0091130016 0.7827641344 3.1944000768 3.1944000768 1.5983500288
186 1 -5.85844 25.8857 25.1967 -0.1060190208 -0.4075350528 0.8885951488 0.1818620288 3.1944000768 3.1944000768 1.5983500288
187 1 -4.83319 2.3052 -24.7991 -0.5706101248 -0.784153088 -0.1097380224 -0.2178660608 3.1944000768 3.1944000768 1.5983500288
188 1 14.6082 -21.275 19.4288 -0.972793856 0.0827389952 -0.0866899968 0.198270976 3.1944000768 3.1944000768 1.5983500288
189 1 24.5727 -24.4114 -7.04793 -0.5359453184 -0.2941451264 0.7913434112 0.0041140024 3.1944000768 3.1944000768 1.5983500288
190 1 4.46601 0.33274 5.37799 -0.304048128 0.2146330752 0.9280433152 -0.0149320064 3.1944000768 3.1944000768 1.5983500288
191 1 5.70269 23.1076 7.00804 -0.7165629952 -0.0768779968 -0.004222 0.693260032 3.1944000768 3.1944000768 1.5983500288
192 1 -3.8847 17.9983 -11.8443 -0.1658170112 -0.546230016 -0.7751439872 -0.27072 3.1944000768 3.1944000768 1.5983500288
193 1 -2.81644 -0.72183 24.7607 -0.4248690688 0.4958710784 0.7343990784 0.1850840192 3.1944000768 3.1944000768 1.5983500288
194 1 7.27473 -13.0086 -26.7983 0.294542976 -0.4076599552 0.510502912 -0.6974559232 3.1944000768 3.1944000768 1.5983500288
195 1 24.5913 18.119 -8.00452 -0.7828128256 -0.2995729408 0.440932864 -0.3209958912 3.1944000768 3.1944000768 1.5983500288
196 1 -5.42207 25.5523 19.1483 0.5738491392 0.642801152 0.4447431168 0.2443510528 3.1944000768 3.1944000768 1.5983500288
197 1 1.04519 -19.88 13.2466 0.28844608 -0.5814611456 -0.7116321792 -0.2688520448 3.1944000768 3.1944000768 1.5983500288
198 1 2.40072 14.7953 -9.90051 -0.39815104 0.3077070336 -0.1581270144 -0.849581056 3.1944000768 3.1944000768 1.5983500288
199 1 24.612 0.51668 9.99279 0.474571776 0.174035904 -0.4883927552 0.71131264 3.1944000768 3.1944000768 1.5983500288
200 1 7.26401 9.38606 7.62808 0.5237461504 -0.6058701312 0.4887721472 -0.3459960832 3.1944000768 3.1944000768 1.5983500288
201 1 16.939 -22.8064 -12.2281 0.3608659712 0.8024008704 0.3062559744 0.3635049728 3.1944000768 3.1944000768 1.5983500288
202 1 12.4278 -12.9546 8.91449 -0.8636097536 0.4006188544 -0.013336996 0.3057858816 3.1944000768 3.1944000768 1.5983500288
203 1 -15.4111 4.91963 -23.3734 0.5715357184 -0.3526248448 0.0476159776 -0.7394156544 3.1944000768 3.1944000768 1.5983500288
204 1 -21.7725 -6.16218 19.2434 0.8621362176 -0.4376871424 -0.1698490368 0.1905320448 3.1944000768 3.1944000768 1.5983500288
205 1 0.57084 -1.36251 -21.7664 0.1512529664 0.0805799808 0.3657118976 0.9148137472 3.1944000768 3.1944000768 1.5983500288
206 1 -18.5033 -5.84911 -25.5309 0.3156139008 0.600918784 -0.115853952 0.725163776 3.1944000768 3.1944000768 1.5983500288
207 1 20.0257 -19.8276 -10.251 0.7629233152 0.2838590976 0.5299921408 -0.2376560896 3.1944000768 3.1944000768 1.5983500288
208 1 19.1953 -4.62293 -16.9812 0.4977938432 0.35298688 -0.5356868608 0.5836447232 3.1944000768 3.1944000768 1.5983500288
209 1 -24.9939 -8.70133 -5.49803 0.3924509184 -0.0469179936 -0.1699879936 -0.9027098624 3.1944000768 3.1944000768 1.5983500288
210 1 -22.9503 3.5003 24.2718 0.2499549184 0.0663649792 0.437614848 0.86116864 3.1944000768 3.1944000768 1.5983500288
211 1 23.5586 24.9314 -3.18592 -0.7234852352 0.121828032 0.4281031168 0.527688192 3.1944000768 3.1944000768 1.5983500288
212 1 25.145 -7.00848 -25.0892 0.5353578496 0.7267497984 -0.3069668608 -0.30165888 3.1944000768 3.1944000768 1.5983500288
213 1 0.89277 16.9244 23.7685 0.9172220928 0.332172032 0.1495290112 -0.1612650112 3.1944000768 3.1944000768 1.5983500288
214 1 2.34977 26.3415 -1.4361 -0.9208735744 0.2383398912 -0.30630784 0.0368999808 3.1944000768 3.1944000768 1.5983500288
215 1 -23.9214 5.49562 8.75234 -0.287654016 0.1715350016 0.646294016 -0.685664 3.1944000768 3.1944000768 1.5983500288
216 1 19.2021 6.18049 -4.28862 -0.8357459968 -0.5451650048 0.0481810016 0.044748 3.1944000768 3.1944000768 1.5983500288
217 1 -4.91485 10.3996 7.38777 0.3622139136 -0.4523918848 -0.5685398528 0.5838708736 3.1944000768 3.1944000768 1.5983500288
218 1 26.3055 -6.99425 1.60687 -0.685444096 -0.544839168 -0.4186680832 -0.2409020416 3.1944000768 3.1944000768 1.5983500288
219 1 -9.21641 22.1361 20.6301 -0.5755359744 -0.6793339392 0.3941129472 0.2279009792 3.1944000768 3.1944000768 1.5983500288
220 1 8.2245 14.2315 11.3313 -0.0946710016 -0.0640140032 -0.6203720192 -0.775937024 3.1944000768 3.1944000768 1.5983500288
221 1 15.1775 11.4192 -23.5421 -0.2846770944 -0.8163091968 0.4204331264 -0.2753800704 3.1944000768 3.1944000768 1.5983500288
222 1 8.76027 11.047 21.5639 -0.0098430008 0.8726171648 0.469176064 0.1353380096 3.1944000768 3.1944000768 1.5983500288
223 1 26.644 21.7027 -14.8803 0.4611532288 -0.5519292928 -0.6296293888 0.2937321472 3.1944000768 3.1944000768 1.5983500288
224 1 -7.84981 16.0212 6.60416 -0.4066460672 -0.7546861056 0.3632780288 -0.3648520448 3.1944000768 3.1944000768 1.5983500288
225 1 17.3463 8.48745 -14.4996 0.9763366912 0.1732649344 -0.1098319616 0.0684319808 3.1944000768 3.1944000768 1.5983500288
226 1 -21.4415 -15.3939 13.2203 -0.8859911168 -0.0231380016 0.4325550592 -0.1654710144 3.1944000768 3.1944000768 1.5983500288
227 1 6.84193 5.29133 2.61734 0.1361269888 0.0762630016 0.1454229888 0.9769880576 3.1944000768 3.1944000768 1.5983500288
228 1 -16.6707 26.7351 -8.30534 0.650354944 -0.5131109376 0.4183319552 -0.3724969728 3.1944000768 3.1944000768 1.5983500288
229 1 17.1526 3.59809 -16.0435 -0.0612560192 0.2849990912 0.864180224 -0.4101411072 3.1944000768 3.1944000768 1.5983500288
230 1 1.1608 2.29888 22.2871 -0.0943700224 -0.2535620608 0.9369612288 0.2211430656 3.1944000768 3.1944000768 1.5983500288
231 1 -9.04136 -7.29257 -24.7731 0.7497246208 0.401976832 -0.1303429504 -0.5092527616 3.1944000768 3.1944000768 1.5983500288
232 1 23.1601 -13.7944 -8.04626 -0.4211760128 -0.4891230208 -0.3159280384 -0.695384064 3.1944000768 3.1944000768 1.5983500288
233 1 -12.849 -12.341 -17.1922 -0.532015104 0.1312130048 -0.7163160576 -0.432012032 3.1944000768 3.1944000768 1.5983500288
234 1 13.3757 21.9186 5.19924 0.219022976 -0.0685749952 -0.9207568384 -0.3154889728 3.1944000768 3.1944000768 1.5983500288
235 1 -3.2637 13.2374 20.0519 0.2529339392 0.8811157504 -0.1562959488 0.3677379072 3.1944000768 3.1944000768 1.5983500288
236 1 -19.1276 21.8723 24.5977 -0.4381331456 -0.7705673216 -0.3289721344 -0.325642112 3.1944000768 3.1944000768 1.5983500288
237 1 -13.9372 -2.94982 -10.8222 0.2729439744 0.5490779136 -0.3904219392 0.6867209728 3.1944000768 3.1944000768 1.5983500288
238 1 19.7993 24.9105 20.2969 0.1989650304 0.7549021184 0.1525070336 0.6060341248 3.1944000768 3.1944000768 1.5983500288
239 1 -9.31374 16.2725 -9.23405 -0.3236390912 -0.1358880256 -0.7547941888 -0.5541460992 3.1944000768 3.1944000768 1.5983500288
240 1 11.7648 12.7952 -9.79968 -0.2294930176 0.728766976 0.2236280064 -0.6051629568 3.1944000768 3.1944000768 1.5983500288
241 1 -10.0355 25.2831 -16.4991 -0.8389471744 -0.1007680192 -0.0156170032 0.53457408 3.1944000768 3.1944000768 1.5983500288
242 1 -0.30854 -17.8524 23.7986 -0.9141912576 -0.3494140928 0.1426290304 0.1477200256 3.1944000768 3.1944000768 1.5983500288
243 1 -8.3798 -15.0702 8.08837 -0.1091920256 -0.1718730368 -0.1389250304 -0.9691421696 3.1944000768 3.1944000768 1.5983500288