ITEM: TIMESTEP
0
ITEM: NUMBER OF ATOMS
1000
ITEM: BOX BOUNDS pp pp pp
-2.6823599999999999e+01 2.6823599999999999e+01
-2.6823599999999999e+01 2.6823599999999999e+01
-2.6823599999999999e+01 2.6823599999999999e+01
ITEM: ATOMS id type xu yu zu quatw quati quatj quatk c_diameter[1] c_diameter[2] c_diameter[3] vx vy vz angmomx angmomy angmomz mol
24 1 -17.2651 -26.2781 -14.8431 -0.625497 -0.63254 -0.294833 0.348885 6.3367 6.3367 3.2379 0.000234757 -0.000121065 0.00196079 0 0 0 24
28 1 -25.7766 -24.0256 -23.6639 0.587089 0.007534 0.721555 -0.366918 6.3367 6.3367 3.2379 0.0020988 0.00395609 9.17815e-05 0 0 0 28
30 1 -24.9865 -18.2414 -19.0521 0.874676 -0.322501 -0.019667 -0.361314 6.3367 6.3367 3.2379 -0.00202265 0.000358321 0.00254659 0 0 0 30
43 1 -15.2167 -22.4713 -23.1673 0.765738 0.439381 -0.150626 0.44486 6.3367 6.3367 3.2379 -0.00104909 -7.98424e-06 -0.00412662 0 0 0 43
76 1 -13.9927 -18.4747 -18.5742 -0.233228 -0.033427 0.063896 -0.969745 6.3367 6.3367 3.2379 0.000423599 -0.00351091 -0.000219588 0 0 0 76
96 1 -18.0768 -17.5527 -14.4738 0.411159 0.673688 -0.109745 -0.604193 6.3367 6.3367 3.2379 -0.000657411 0.000945292 0.000380377 0 0 0 96
330 1 -21.1317 -20.1047 -25.5752 0.598212 -0.495015 -0.623764 0.089561 6.3367 6.3367 3.2379 0.00141439 0.00286839 -0.0013562 0 0 0 330
345 1 -19.3869 -18.9721 -19.4928 0.061888 -0.475534 -0.124226 -0.86868 6.3367 6.3367 3.2379 -0.00312899 0.000913076 -0.00415752 0 0 0 345
395 1 -16.3667 -17.1233 -24.1908 -0.242824 -0.683414 -0.439406 -0.530003 6.3367 6.3367 3.2379 0.000140407 0.000771981 -0.000532008 0 0 0 395
526 1 -19.1001 -21.8092 -13.9274 0.52523 -0.035064 -0.579365 0.622286 6.3367 6.3367 3.2379 0.000197791 -0.00084374 -0.00233986 0 0 0 526
909 1 -25.6444 -16.5685 -24.9109 0.884309 -0.440877 0.036507 0.149305 6.3367 6.3367 3.2379 -0.00335077 -1.30813e-06 -0.000373349 0 0 0 909
975 1 -20.9066 -23.486 -20.6827 -0.370986 -0.140551 -0.453793 -0.797926 6.3367 6.3367 3.2379 -0.00140489 -0.000220817 -0.00144477 0 0 0 975
70 1 -3.1619 -18.6468 -25.5355 0.306347 0.130012 0.063303 0.940873 6.3367 6.3367 3.2379 -0.00200159 -0.00088321 -0.00150151 0 0 0 70
103 1 -10.046 -23.467 -26.1779 -0.236613 -0.534063 -0.25517 -0.770506 6.3367 6.3367 3.2379 -0.000728221 -0.00144035 0.00299082 0 0 0 103
176 1 -2.68425 -21.1169 -20.6972 0.134193 -0.884346 0.033888 -0.445843 6.3367 6.3367 3.2379 -0.00056561 -0.00303986 -0.00387621 0 0 0 176
252 1 -12.9731 -24.1709 -17.5987 0.461224 -0.682035 -0.220409 -0.522992 6.3367 6.3367 3.2379 -0.000997785 0.00080357 -0.0027283 0 0 0 252
388 1 -5.08492 -18.638 -14.8189 0.451748 0.514461 0.512033 -0.518725 6.3367 6.3367 3.2379 0.000104902 -5.25582e-05 0.000423863 0 0 0 388
491 1 -7.26373 -18.3545 -21.9126 0.598638 -0.199058 -0.540624 0.556538 6.3367 6.3367 3.2379 -0.000830432 0.000457477 0.0038874 0 0 0 491
581 1 -9.42464 -20.927 -17.3448 0.347672 -0.473984 -0.780379 0.213241 6.3367 6.3367 3.2379 -0.00131588 0.000524069 0.000216429 0 0 0 581
649 1 -11.7442 -18.2302 -22.4171 -0.1296 0.905618 -0.035801 0.402216 6.3367 6.3367 3.2379 0.000180529 -0.00338286 0.00131834 0 0 0 649
764 1 -7.18269 -24.1068 -22.3432 0.952344 -0.193749 0.235478 -0.007246 6.3367 6.3367 3.2379 0.00231517 0.00284636 0.000328261 0 0 0 764
797 1 -0.25241 -16.1278 -21.6699 -0.164982 -0.140426 0.519634 0.826463 6.3367 6.3367 3.2379 0.000249509 0.000943179 0.000487905 0 0 0 797
885 1 -4.52963 -22.1544 -15.0166 0.248517 -0.319444 0.615529 0.676254 6.3367 6.3367 3.2379 0.00130389 -0.000225785 -0.000589622 0 0 0 885
931 1 -4.25429 -26.6704 -18.5783 0.313429 0.10111 -0.899025 0.288605 6.3367 6.3367 3.2379 0.0001555 0.00257659 0.000325493 0 0 0 931
974 1 -0.24482 -23.8122 -16.1018 -0.340693 0.681859 -0.433981 -0.480267 6.3367 6.3367 3.2379 0.00296178 0.00045978 0.00137992 0 0 0 974
11 1 -17.8529 -6.46951 -15.2284 0.022362 0.216895 -0.223175 0.950079 6.3367 6.3367 3.2379 0.00119764 0.00125917 0.00079415 0 0 0 11
206 1 -18.5033 -5.84911 -25.5309 0.725164 0.315614 0.600919 -0.115854 6.3367 6.3367 3.2379 0.00149808 0.00209649 0.000958266 0 0 0 206
505 1 -13.8722 -11.2223 -23.0348 0.055435 0.263329 -0.935065 0.230734 6.3367 6.3367 3.2379 0.00262691 0.00287052 0.00117796 0 0 0 505
553 1 -23.7919 -13.8777 -17.3651 -0.194732 -0.862503 0.411208 0.22153 6.3367 6.3367 3.2379 -0.004345 0.00201438 -0.000235594 0 0 0 553
571 1 -17.6142 -11.5198 -26.7757 0.483136 -0.330691 0.163148 -0.794107 6.3367 6.3367 3.2379 -0.00097629 -0.00117767 0.00120919 0 0 0 571
624 1 -23.2716 -8.84542 -26.387 0.187206 0.952338 -0.116894 -0.210576 6.3367 6.3367 3.2379 0.00200124 -0.00240067 -0.00109522 0 0 0 624
708 1 -25.9364 -11.5701 -21.8326 0.737967 0.09582 -0.665986 0.051823 6.3367 6.3367 3.2379 0.00186182 0.000759186 0.00229358 0 0 0 708
774 1 -20.7682 -9.09018 -21.1279 -0.946171 0.059603 0.316793 0.029159 6.3367 6.3367 3.2379 -0.000966818 7.67049e-05 0.0010277 0 0 0 774
781 1 -21.4333 -14.2678 -23.1971 0.563835 0.702512 0.006176 -0.434199 6.3367 6.3367 3.2379 0.00180256 0.001166 -0.000944977 0 0 0 781
788 1 -17.652 -11.1823 -13.4611 0.271669 -0.374689 0.245416 -0.851807 6.3367 6.3367 3.2379 0.00136305 -0.00067307 0.00137134 0 0 0 788
911 1 -13.9678 -15.9571 -13.4888 -0.844452 0.050241 -0.437068 0.30553 6.3367 6.3367 3.2379 -0.00010201 0.000122101 0.00194273 0 0 0 911
950 1 -14.0682 -8.11664 -20.216 -0.404935 -0.63189 -0.531705 0.392469 6.3367 6.3367 3.2379 -0.000809763 0.00108683 -0.000243133 0 0 0 950
985 1 -24.7244 -8.32982 -16.2812 -0.837078 0.334027 -0.119932 0.416344 6.3367 6.3367 3.2379 0.00179518 0.000817783 2.5301e-06 0 0 0 985
1000 1 -17.3321 -13.5053 -18.7334 -0.069051 -0.706966 0.657556 0.251098 6.3367 6.3367 3.2379 -0.00167936 -0.000125812 0.00115568 0 0 0 1000
47 1 -8.64143 -8.52351 -19.0426 0.443274 0.810054 -0.290989 -0.250292 6.3367 6.3367 3.2379 0.000547184 0.00161534 0.000215353 0 0 0 47
132 1 -7.08985 -12.7405 -23.7224 -0.880213 -0.282349 0.102862 0.367319 6.3367 6.3367 3.2379 0.00238713 0.00318312 -0.000723374 0 0 0 132
231 1 -9.04136 -7.29257 -24.7731 -0.509253 0.749725 0.401977 -0.130343 6.3367 6.3367 3.2379 -0.00172498 0.00141681 -0.00307293 0 0 0 231
233 1 -12.849 -12.341 -17.1922 -0.432012 -0.532015 0.131213 -0.716316 6.3367 6.3367 3.2379 -0.000206252 -0.000923999 -0.00155506 0 0 0 233
246 1 -4.47348 -7.78261 -22.1191 0.477983 0.758117 0.044434 -0.441381 6.3367 6.3367 3.2379 -0.00372833 -0.00018076 0.000925119 0 0 0 246
308 1 -3.48728 -12.6945 -26.491 0.769441 0.525429 -0.357406 -0.064391 6.3367 6.3367 3.2379 0.00377532 -0.000497087 -4.3139e-05 0 0 0 308
325 1 -8.19239 -14.1384 -18.4992 -0.677423 -0.631551 -0.345694 0.150788 6.3367 6.3367 3.2379 0.00132999 7.07896e-05 -0.000640163 0 0 0 325
363 1 -11.9812 -5.4569 -15.5643 0.775302 0.214636 -0.238506 -0.544015 6.3367 6.3367 3.2379 0.00157517 -0.000342686 -1.2689e-05 0 0 0 363
465 1 -3.71145 -14.65 -19.7309 0.713773 -0.440365 -0.525986 0.141224 6.3367 6.3367 3.2379 -0.000111021 0.00300641 0.000489975 0 0 0 465
476 1 -9.63006 -10.6291 -13.5989 -0.459589 -0.281948 -0.057016 -0.840257 6.3367 6.3367 3.2379 0.0029348 0.0035362 0.000983291 0 0 0 476
485 1 -4.46741 -13.3794 -14.2391 -0.128368 0.763227 0.629777 -0.066234 6.3367 6.3367 3.2379 0.000461312 0.00152378 -0.00138268 0 0 0 485
724 1 -4.44726 -8.03714 -16.3228 -0.140411 0.834827 -0.524077 -0.093229 6.3367 6.3367 3.2379 0.000669423 -0.00201264 -0.000542762 0 0 0 724
932 1 -12.1391 -14.795 -26.4694 -0.100096 -0.314624 -0.571587 0.751186 6.3367 6.3367 3.2379 0.00217645 -0.000805092 0.00185712 0 0 0 932
970 1 -0.32841 -7.41095 -19.9429 -0.526241 -0.340249 0.685104 -0.371395 6.3367 6.3367 3.2379 0.000430942 -0.00117393 0.00297671 0 0 0 970
23 1 -21.1143 -3.69876 -18.8069 -0.133895 0.836463 -0.474409 0.239452 6.3367 6.3367 3.2379 0.00118642 0.000712237 -0.000208044 0 0 0 23
65 1 -15.7789 -2.54064 -20.0306 0.338547 -0.188824 0.785206 -0.482889 6.3367 6.3367 3.2379 0.0014966 0.00204602 0.00444434 0 0 0 65
98 1 -21.3921 2.68862 -15.3024 -0.456747 0.705997 0.342706 -0.41893 6.3367 6.3367 3.2379 0.00183373 0.00431818 0.0012259 0 0 0 98
154 1 -24.919 -2.68255 -16.4556 -0.01308 -0.437958 0.826189 -0.354166 6.3367 6.3367 3.2379 -0.00080065 0.00295619 -0.00024956 0 0 0 154
203 1 -15.4111 4.91963 -23.3734 -0.739416 0.571536 -0.352625 0.047616 6.3367 6.3367 3.2379 0.000207093 0.000365333 -0.00122791 0 0 0 203
287 1 -21.7307 -3.30724 -24.3985 -0.159785 -0.248017 0.426077 0.855228 6.3367 6.3367 3.2379 0.00161989 -0.0010075 -0.000440189 0 0 0 287
290 1 -26.7367 1.4655 -14.8076 -0.588951 -0.425883 0.530724 -0.435996 6.3367 6.3367 3.2379 -0.00181873 -0.000369291 -0.0023769 0 0 0 290
296 1 -25.2034 3.11704 -20.8442 0.031989 0.964102 0.143136 -0.221351 6.3367 6.3367 3.2379 0.00141427 -0.000503294 0.00178671 0 0 0 296
394 1 -19.0767 2.11012 -21.2552 0.181176 -0.618645 0.11105 -0.756387 6.3367 6.3367 3.2379 0.00201224 -0.000955595 0.00176734 0 0 0 394
525 1 -17.2549 0.49457 -16.7033 -0.436468 -0.500981 0.533364 0.523485 6.3367 6.3367 3.2379 -0.00126591 6.76648e-05 -0.00182193 0 0 0 525
537 1 -26.5535 -4.5949 -21.1306 0.215847 0.609089 -0.71007 -0.279682 6.3367 6.3367 3.2379 0.00133572 9.49086e-05 0.00159054 0 0 0 537
552 1 -22.6159 1.98825 -24.6366 0.135648 0.837002 -0.528235 0.044653 6.3367 6.3367 3.2379 -0.00097438 1.55434e-05 0.000497304 0 0 0 552
21 1 -13.03 2.41396 -17.2138 -0.285768 -0.558424 -0.681487 -0.376928 6.3367 6.3367 3.2379 -0.000384013 -0.000755367 0.00158053 0 0 0 21
46 1 -11.1078 -3.23916 -20.7388 0.480653 0.553613 0.30254 0.609061 6.3367 6.3367 3.2379 0.00110558 0.000558115 0.00108306 0 0 0 46
48 1 -6.22606 -3.80801 -18.6452 -0.101332 -0.989656 -0.092187 0.042587 6.3367 6.3367 3.2379 0.00418288 -0.00171342 -0.00197405 0 0 0 48
187 1 -4.83319 2.3052 -24.7991 -0.217866 -0.57061 -0.784153 -0.109738 6.3367 6.3367 3.2379 -0.00140263 0.000934607 0.00136004 0 0 0 187
251 1 -8.13952 3.10252 -16.2998 0.868826 -0.344149 -0.354262 -0.034654 6.3367 6.3367 3.2379 0.000112319 0.000246091 -0.00021355 0 0 0 251
415 1 -6.76924 -2.22359 -15.3716 0.159961 0.941079 0.278988 -0.104631 6.3367 6.3367 3.2379 0.00297953 -0.00141257 0.00273877 0 0 0 415
437 1 -12.9463 -0.72554 -26.3668 0.242838 -0.283811 -0.862626 0.341111 6.3367 6.3367 3.2379 0.00148692 -0.00019666 0.000852363 0 0 0 437
487 1 -6.39827 -2.84349 -24.0716 0.090395 0.37207 0.597568 0.704489 6.3367 6.3367 3.2379 -0.000616994 0.000194787 -0.00137359 0 0 0 487
597 1 -9.6439 1.93957 -22.2881 0.803875 0.486768 -0.337022 -0.057076 6.3367 6.3367 3.2379 -0.00180898 0.0019893 0.00146063 0 0 0 597
662 1 -3.91444 1.82431 -18.6737 -0.203705 -0.047572 0.78508 0.583001 6.3367 6.3367 3.2379 -0.00157195 -1.30372e-05 -0.00179104 0 0 0 662
822 1 -1.10839 -5.25952 -25.8778 0.377498 -0.652482 -0.328709 0.568957 6.3367 6.3367 3.2379 -0.000388247 0.000193206 -0.00145972 0 0 0 822
939 1 -1.04053 -3.65072 -16.5641 -0.270298 -0.24971 -0.630287 -0.68361 6.3367 6.3367 3.2379 -0.00183065 -0.00312109 0.00388002 0 0 0 939
122 1 -17.5814 15.6322 -14.7953 -0.548597 -0.03402 -0.706227 0.446237 6.3367 6.3367 3.2379 -0.00164885 -0.000327938 -7.22581e-06 0 0 0 122
295 1 -22.8315 5.98082 -17.6604 0.320595 0.500361 -0.723747 -0.350783 6.3367 6.3367 3.2379 0.00278545 0.00154649 -0.00148457 0 0 0 295
307 1 -19.8473 9.7054 -23.5355 0.486849 -0.658502 -0.170512 -0.547977 6.3367 6.3367 3.2379 0.000431641 -0.00114839 -1.85076e-05 0 0 0 307
335 1 -16.4771 6.45719 -17.7672 -0.471603 -0.637138 -0.603919 0.083232 6.3367 6.3367 3.2379 -0.00356691 -0.00160781 -0.000462895 0 0 0 335
343 1 -19.5595 10.2119 -15.4938 0.237653 0.202733 0.846299 0.431508 6.3367 6.3367 3.2379 -0.00306573 -0.00197403 -0.000175799 0 0 0 343
356 1 -23.3066 14.5421 -17.9414 0.655837 -0.676233 -0.228761 -0.24547 6.3367 6.3367 3.2379 0.00203849 0.000161085 -0.00189184 0 0 0 356
385 1 -14.0018 15.1691 -20.7577 -0.126014 -0.613002 -0.778522 0.047467 6.3367 6.3367 3.2379 -4.44934e-05 -0.00552173 -0.00028114 0 0 0 385
556 1 -24.3361 7.33371 -25.5834 0.257825 -0.197681 0.85794 -0.397979 6.3367 6.3367 3.2379 0.00154514 -0.00219328 -0.003129 0 0 0 556
653 1 -14.4252 12.1397 -24.3923 -0.230501 -0.413871 0.028407 0.880212 6.3367 6.3367 3.2379 0.0010734 0.000767219 -0.00191781 0 0 0 653
654 1 -14.9321 12.8537 -14.0313 0.228894 0.521436 -0.684373 -0.455352 6.3367 6.3367 3.2379 -0.00421166 -0.000635809 0.00204234 0 0 0 654
703 1 -17.4383 11.4884 -19.004 -0.448914 0.39533 -0.720525 -0.350762 6.3367 6.3367 3.2379 -0.000455174 0.000284927 0.000913617 0 0 0 703
821 1 -24.6241 9.39273 -20.0507 0.311015 -0.545738 0.305744 -0.715514 6.3367 6.3367 3.2379 0.00129348 0.00360943 0.00188034 0 0 0 821
828 1 -25.4671 13.362 -22.8773 0.316314 -0.733056 -0.587154 0.13351 6.3367 6.3367 3.2379 -0.00175403 -0.00197894 -0.000787639 0 0 0 828
847 1 -24.4288 11.0799 -13.4709 0.412286 0.051144 -0.768804 0.486152 6.3367 6.3367 3.2379 0.000661951 -0.00270454 0.00154845 0 0 0 847
901 1 -19.7782 13.9034 -24.7938 0.028415 -0.321626 -0.553865 -0.767453 6.3367 6.3367 3.2379 -7.68233e-05 -0.000328406 -0.00179009 0 0 0 901
133 1 -9.26533 14.6147 -21.5308 0.220883 0.834083 0.401747 0.306783 6.3367 6.3367 3.2379 -0.000396485 0.00115761 0.00239007 0 0 0 133
337 1 -7.7679 7.19833 -25.1095 -0.415724 -0.632021 -0.64676 -0.097077 6.3367 6.3367 3.2379 -0.000252737 0.00089786 -0.00086856 0 0 0 337
366 1 -11.0023 8.22248 -16.4018 0.269894 0.28877 -0.865791 0.306879 6.3367 6.3367 3.2379 0.00143066 0.000891707 0.000491412 0 0 0 366
414 1 -5.82443 12.077 -18.2194 0.193155 -0.393032 0.19168 -0.878337 6.3367 6.3367 3.2379 0.000971594 -0.00110458 0.000559402 0 0 0 414
432 1 -8.41379 15.3948 -14.1158 -0.102689 0.883751 -0.431478 0.149216 6.3367 6.3367 3.2379 0.00341059 0.00104224 -0.00126621 0 0 0 432
456 1 -9.56634 12.7924 -26.2604 -0.553652 0.312239 -0.279862 -0.719482 6.3367 6.3367 3.2379 -0.00193356 -0.00223502 -0.000362181 0 0 0 456
587 1 -6.1764 5.57974 -20.0933 -0.374661 0.793117 -0.479097 0.032556 6.3367 6.3367 3.2379 0.00107582 0.000541738 0.00169093 0 0 0 587
610 1 -0.62347 14.9496 -20.0655 -0.321194 0.83877 -0.367812 -0.240859 6.3367 6.3367 3.2379 0.00109888 0.00160356 0.0013093 0 0 0 610
645 1 -11.5143 8.10873 -20.9917 0.967194 0.035714 0.24313 0.064404 6.3367 6.3367 3.2379 0.000208326 0.000692787 -0.00298504 0 0 0 645
755 1 -11.8296 15.9209 -17.5184 0.744034 0.040081 -0.083981 0.66163 6.3367 6.3367 3.2379 0.00101374 0.00288254 -0.00332208 0 0 0 755
772 1 -1.85714 14.0852 -15.1311 0.275232 0.921243 0.196657 0.192055 6.3367 6.3367 3.2379 -0.00145346 7.53596e-05 -0.000769316 0 0 0 772
800 1 -2.65771 6.06566 -16.0389 -0.943769 0.217044 -0.182023 -0.17047 6.3367 6.3367 3.2379 -0.00193902 -0.000825222 0.00142837 0 0 0 800
898 1 -4.86196 14.5231 -25.9667 0.530578 -0.086853 -0.790776 0.292604 6.3367 6.3367 3.2379 -0.00122662 -0.00048833 0.0008084 0 0 0 898
908 1 -1.91842 9.66395 -21.0223 0.531097 0.681036 0.058765 0.500672 6.3367 6.3367 3.2379 -0.00124737 0.00175191 -0.000688087 0 0 0 908
4 1 -15.8431 21.1305 -23.6228 0.43094 0.077589 0.894927 0.085882 6.3367 6.3367 3.2379 -0.00294403 0.00133113 0.00206106 0 0 0 4
85 1 -19.0946 18.2631 -19.9616 -0.113286 -0.47128 0.027474 -0.874246 6.3367 6.3367 3.2379 -0.00151427 0.00212281 0.000516575 0 0 0 85
168 1 -22.8317 26.12 -13.6702 0.233309 -0.644914 0.693863 -0.219561 6.3367 6.3367 3.2379 0.00142327 -6.46816e-05 0.000104194 0 0 0 168
184 1 -14.5785 21.1219 -18.1816 -0.280037 0.795717 0.410913 0.34578 6.3367 6.3367 3.2379 -0.000471587 0.000376902 0.00307234 0 0 0 184
434 1 -16.1377 26.7127 -26.0243 -0.44124 -0.864938 -0.210788 0.11295 6.3367 6.3367 3.2379 -0.000683365 4.85695e-05 -0.000168497 0 0 0 434
461 1 -22.5926 19.5146 -15.8734 0.789225 -0.003536 -0.251002 0.560455 6.3367 6.3367 3.2379 0.000260474 0.00012942 -0.00252819 0 0 0 461
473 1 -22.6458 18.9832 -22.8379 0.020962 0.700502 0.128707 -0.701635 6.3367 6.3367 3.2379 0.0012107 4.90225e-05 0.0015647 0 0 0 473
540 1 -17.0909 21.7365 -13.4967 0.672401 -0.127544 -0.670505 0.286413 6.3367 6.3367 3.2379 2.75879e-05 3.51803e-05 -0.00198189 0 0 0 540
689 1 -24.1096 26.012 -21.6492 -0.686497 -0.147591 -0.679545 0.2125 6.3367 6.3367 3.2379 -0.00194102 0.0044236 -0.0052088 0 0 0 689
694 1 -16.1466 25.8374 -20.4985 0.441257 0.343845 0.819861 0.122031 6.3367 6.3367 3.2379 0.000331541 -0.000896963 0.000889113 0 0 0 694
747 1 -21.3213 23.7578 -18.0674 -0.896657 -0.431264 -0.01468 -0.099 6.3367 6.3367 3.2379 0.00140842 -0.00133904 -0.00242737 0 0 0 747
765 1 -20.7281 24.2313 -23.9651 -0.356669 0.720677 -0.276675 0.526177 6.3367 6.3367 3.2379 -0.00111555 -0.00327502 -0.00114428 0 0 0 765
62 1 -0.54924 23.5064 -14.7926 -0.090932 -0.559979 -0.336662 0.751541 6.3367 6.3367 3.2379 0.00090936 -0.000741378 -0.00182361 0 0 0 62
170 1 -8.88483 20.791 -19.5809 -0.736768 0.516079 0.436695 0.011534 6.3367 6.3367 3.2379 0.00186484 0.00045278 0.000435656 0 0 0 170
241 1 -10.0355 25.2831 -16.4991 0.534574 -0.838947 -0.100768 -0.015617 6.3367 6.3367 3.2379 0.0004678 0.000116904 -0.00207396 0 0 0 241
328 1 -4.64377 20.8638 -17.2721 0.527382 -0.10518 -0.809887 -0.234282 6.3367 6.3367 3.2379 -0.00125798 0.000620518 -0.000460119 0 0 0 328
374 1 -0.95214 19.3796 -25.867 0.164005 -0.299615 0.115349 0.932753 6.3367 6.3367 3.2379 0.00277524 -0.00156422 -0.00369445 0 0 0 374
402 1 -11.4678 25.3772 -21.9765 0.801937 -0.082788 -0.095151 -0.583943 6.3367 6.3367 3.2379 0.00354243 -0.00321955 0.000616518 0 0 0 402
418 1 -8.44155 21.143 -13.7802 -0.105109 0.414668 -0.763342 0.484057 6.3367 6.3367 3.2379 -0.00060515 -0.000119366 0.00371843 0 0 0 418
636 1 -11.5367 18.9113 -25.528 -0.434192 0.086068 -0.617761 0.649955 6.3367 6.3367 3.2379 -0.00157392 0.0027758 0.00090401 0 0 0 636
657 1 -1.19948 24.1959 -23.4839 -0.323189 -0.793544 -0.348657 0.379835 6.3367 6.3367 3.2379 0.000653317 0.00201712 0.000966756 0 0 0 657
827 1 -5.36677 19.3455 -22.5508 -0.726614 0.327659 0.136126 -0.588338 6.3367 6.3367 3.2379 -0.0017622 0.00289675 -0.00025553 0 0 0 827
893 1 -8.0145 24.4384 -24.3791 0.930952 -0.076399 -0.331706 -0.132145 6.3367 6.3367 3.2379 -0.00211822 -0.00104084 -0.000725063 0 0 0 893
73 1 -13.4732 -16.8144 -7.43463 -0.798593 0.170661 0.426497 0.388876 6.3367 6.3367 3.2379 5.07992e-06 0.000339404 0.00182674 0 0 0 73
248 1 -16.4671 -20.681 -8.19077 -0.576541 0.470887 0.328412 0.581388 6.3367 6.3367 3.2379 0.000960791 0.00169738 0.000435197 0 0 0 248
273 1 -24.5172 -17.698 -13.17 0.00890099 0.559271 -0.73636 -0.380673 6.3367 6.3367 3.2379 0.00184589 0.00101587 0.000573254 0 0 0 273
303 1 -13.5313 -24.3185 -11.3706 0.105561 0.265371 0.729929 0.620998 6.3367 6.3367 3.2379 -0.000330932 0.000505335 0.00155479 0 0 0 303
352 1 -24.5113 -21.167 -6.31462 0.344041 -0.246504 -0.870161 -0.252372 6.3367 6.3367 3.2379 0.00128805 -0.00111757 0.00268193 0 0 0 352
373 1 -24.905 -22.651 -11.4142 0.045453 -0.992385 -0.058149 0.098618 6.3367 6.3367 3.2379 0.00139772 0.00227445 0.00166944 0 0 0 373
420 1 -20.3408 -23.7424 -8.90267 -0.548025 0.470443 -0.500278 0.47757 6.3367 6.3367 3.2379 2.10383e-05 -0.00315841 0.000438879 0 0 0 420
501 1 -20.968 -19.6374 -3.47867 -0.836884 -0.153421 -0.522366 0.056759 6.3367 6.3367 3.2379 0.000788623 4.57006e-05 -0.000668927 0 0 0 501
661 1 -15.1529 -21.123 -2.42317 0.708899 0.210047 0.527264 0.418731 6.3367 6.3367 3.2379 0.000499562 -0.00132444 -0.00430155 0 0 0 661
761 1 -26.6119 -18.257 -1.36279 -0.080233 -0.206728 -0.291001 0.930669 6.3367 6.3367 3.2379 -0.00121329 -0.0016611 -3.09225e-05 0 0 0 761
820 1 -17.5122 -25.1176 -2.74104 -0.075804 0.535303 0.300556 -0.78573 6.3367 6.3367 3.2379 0.000717189 -0.00217173 0.000332749 0 0 0 820
870 1 -23.0899 -25.3949 -2.97879 0.800947 -0.565425 0.080547 0.179696 6.3367 6.3367 3.2379 0.00255205 0.00312795 -0.00038384 0 0 0 870
976 1 -21.8576 -17.1378 -9.41241 -0.031677 -0.856519 0.439376 0.268925 6.3367 6.3367 3.2379 -0.00111432 -0.00293207 -0.000384263 0 0 0 976
32 1 -1.16322 -18.303 -4.5213 0.453203 0.434145 -0.602909 0.492571 6.3367 6.3367 3.2379 0.00187262 -1.66071e-05 0.00202233 0 0 0 32
304 1 -5.71876 -19.8979 -5.08783 -0.227422 0.128909 0.85676 -0.444548 6.3367 6.3367 3.2379 0.00185205 0.000250464 0.00240377 0 0 0 304
322 1 -5.902 -20.9247 -9.23478 0.896782 -0.255299 0.20132 0.300125 6.3367 6.3367 3.2379 0.000458902 -0.0022918 -0.00197841 0 0 0 322
507 1 -10.6775 -26.7393 -7.52942 0.945207 0.037058 0.306409 -0.106413 6.3367 6.3367 3.2379 -0.00238256 -0.000716709 0.00235721 0 0 0 507
583 1 -5.94628 -26.2259 -6.53039 -0.519582 -0.669846 0.195746 0.492975 6.3367 6.3367 3.2379 -0.000293767 -0.00127061 -0.00122661 0 0 0 583
592 1 -10.4826 -19.6659 -0.99928 -0.687627 0.189792 -0.054122 -0.698726 6.3367 6.3367 3.2379 0.00146717 -0.00024516 0.00104083 0 0 0 592
600 1 -1.36457 -22.9442 -4.77157 0.591978 -0.685443 -0.263104 0.332423 6.3367 6.3367 3.2379 0.0020317 -0.00307046 2.99154e-05 0 0 0 600
799 1 -0.42935 -20.3571 -10.4332 -0.074992 -0.538314 0.049204 -0.837958 6.3367 6.3367 3.2379 0.00182264 0.000741822 -0.00477127 0 0 0 799
853 1 -3.33403 -26.1303 -0.04723 -0.298918 0.832308 -0.252093 -0.392888 6.3367 6.3367 3.2379 2.11644e-07 0.000305377 -0.00202828 0 0 0 853
894 1 -11.0554 -20.5524 -6.24905 0.588353 -0.082671 -0.763949 -0.251771 6.3367 6.3367 3.2379 0.000686564 -0.00229709 0.00053004 0 0 0 894
897 1 -10.1036 -17.4803 -12.3525 -0.261 0.643741 0.003988 0.719348 6.3367 6.3367 3.2379 -0.000504314 0.000397371 -0.00378468 0 0 0 897
928 1 -9.29887 -24.4948 -1.86202 -0.266944 0.075067 -0.23452 -0.931722 6.3367 6.3367 3.2379 -0.00082738 -0.00121008 -0.00153954 0 0 0 928
973 1 -9.02244 -23.8445 -12.1493 0.73751 0.226038 -0.634886 0.043638 6.3367 6.3367 3.2379 -0.00113004 0.00372132 -0.00154921 0 0 0 973
140 1 -22.2283 -11.6829 -12.0453 -0.726148 -0.193592 -0.659036 0.03003 6.3367 6.3367 3.2379 0.00150494 -0.000822311 0.000105561 0 0 0 140
209 1 -24.9939 -8.70133 -5.49803 -0.90271 0.392451 -0.046918 -0.169988 6.3367 6.3367 3.2379 0.0039075 0.00106333 0.00201432 0 0 0 209
260 1 -19.5156 -12.0593 -1.67793 -0.589587 -0.507516 0.057225 -0.625731 6.3367 6.3367 3.2379 -0.0025364 0.000113651 -0.00178097 0 0 0 260
338 1 -22.998 -14.5433 -4.45732 0.17308 0.266846 0.10604 0.942121 6.3367 6.3367 3.2379 0.00226024 -0.000957714 0.00198472 0 0 0 338
339 1 -17.3365 -12.5792 -8.99576 0.835537 0.48221 0.246077 0.0938 6.3367 6.3367 3.2379 0.000774838 -0.000967703 -0.00233435 0 0 0 339
391 1 -20.9578 -6.68371 -3.08092 0.400127 0.76745 0.426482 -0.262738 6.3367 6.3367 3.2379 0.00213545 -0.00198485 0.00124848 0 0 0 391
655 1 -13.8991 -8.25808 -11.5346 -0.646051 -0.151068 0.657783 0.356538 6.3367 6.3367 3.2379 -0.000741461 0.00190834 -0.00205923 0 0 0 655
679 1 -18.8082 -8.12993 -9.37203 0.892236 -0.447178 -0.008435 0.062256 6.3367 6.3367 3.2379 0.0011685 -0.00360097 -0.00501245 0 0 0 679
762 1 -23.5264 -5.77289 -10.9305 0.271246 -0.093293 -0.928071 -0.237501 6.3367 6.3367 3.2379 -0.00317159 0.00107031 0.000865497 0 0 0 762
792 1 -16.6434 -15.3591 -4.47587 -0.635328 0.057633 -0.667347 0.384298 6.3367 6.3367 3.2379 -0.00152204 0.00230913 0.00228657 0 0 0 792
899 1 -14.5344 -9.06945 -3.98893 0.293679 0.402889 -0.540356 0.677826 6.3367 6.3367 3.2379 0.00109527 0.0030367 8.91186e-05 0 0 0 899
966 1 -25.9432 -12.022 -9.42422 -0.014175 0.965821 -0.020739 0.257991 6.3367 6.3367 3.2379 0.00105997 0.000388145 0.000961044 0 0 0 966
17 1 -4.21056 -10.5195 -9.46601 -0.264197 0.35536 -0.284286 0.850353 6.3367 6.3367 3.2379 -0.000529739 0.00111863 -0.00162358 0 0 0 17
134 1 -11.7752 -11.6676 -7.39844 0.219083 0.09276 -0.628698 -0.740363 6.3367 6.3367 3.2379 0.00208217 0.000983875 -0.000930983 0 0 0 134
147 1 -8.9571 -7.63467 -8.35819 0.45925 0.210007 -0.584398 0.63519 6.3367 6.3367 3.2379 -0.000789387 0.00271434 -0.00275333 0 0 0 147
347 1 -4.49139 -6.17981 -12.412 0.818242 0.015435 0.17191 -0.548351 6.3367 6.3367 3.2379 -0.00218809 -0.00158976 -0.000504008 0 0 0 347
358 1 -2.94778 -15.6004 -9.76072 0.632514 -0.201667 0.563709 -0.491415 6.3367 6.3367 3.2379 0.00137998 4.70273e-05 -0.00258576 0 0 0 358
495 1 -3.12487 -9.76225 -3.18229 -0.540777 0.257476 -0.576103 0.556212 6.3367 6.3367 3.2379 -5.56583e-05 -0.00377369 -0.000855224 0 0 0 495
601 1 -7.91683 -14.4621 -9.76567 0.588811 -0.291069 -0.108413 -0.746208 6.3367 6.3367 3.2379 -0.000809074 0.00158075 0.00109277 0 0 0 601
609 1 -8.05458 -10.3764 -3.03311 -0.0759589 0.441098 0.334399 0.829361 6.3367 6.3367 3.2379 0.00115371 0.000209443 -0.00250103 0 0 0 609
639 1 -6.30556 -15.4623 -4.19971 -0.354802 -0.358888 -0.81626 0.281132 6.3367 6.3367 3.2379 -0.00106383 0.00279758 0.00317504 0 0 0 639
748 1 -11.5574 -14.3214 -1.57093 -0.816061 0.427448 0.200986 0.333074 6.3367 6.3367 3.2379 0.00238367 -0.00108264 -0.000544267 0 0 0 748
45 1 -15.0258 1.86061 -8.42689 -0.169592 -0.187241 -0.446723 -0.858264 6.3367 6.3367 3.2379 0.00317925 0.00117595 0.00117605 0 0 0 45
80 1 -26.2184 -4.00404 -1.38403 -0.125305 0.259523 0.228527 -0.929904 6.3367 6.3367 3.2379 7.38851e-05 0.00191379 1.8616e-05 0 0 0 80
88 1 -19.7458 2.96538 -9.02086 0.748173 -0.382029 0.261486 -0.475305 6.3367 6.3367 3.2379 -0.000315264 -0.000170845 0.000126255 0 0 0 88
237 1 -13.9372 -2.94982 -10.8222 0.686721 0.272944 0.549078 -0.390422 6.3367 6.3367 3.2379 -0.000688381 -0.00208641 -0.00260393 0 0 0 237
350 1 -22.2298 -1.20786 -11.6024 0.071249 -0.455895 -0.805301 -0.372255 6.3367 6.3367 3.2379 0.000570879 1.36873e-05 -0.00108931 0 0 0 350
422 1 -18.825 -2.97649 -8.5528 0.695635 -0.05219 0.5568 -0.450935 6.3367 6.3367 3.2379 -0.00174623 -0.000598856 0.00249786 0 0 0 422
433 1 -25.8018 1.52556 -8.51459 0.287256 0.821816 -0.358518 0.336998 6.3367 6.3367 3.2379 0.00120339 0.0017684 -0.00111503 0 0 0 433
464 1 -15.127 -1.57605 -1.36266 -0.566091 0.190075 -0.743645 0.300674 6.3367 6.3367 3.2379 -0.00107963 0.00208833 0.000826339 0 0 0 464
557 1 -16.0648 3.82851 -1.73565 0.108887 0.432255 -0.703335 0.553733 6.3367 6.3367 3.2379 -0.00316329 0.000425088 2.53584e-05 0 0 0 557
633 1 -23.6626 -2.4249 -5.54756 0.10287 -0.852658 0.279937 0.428983 6.3367 6.3367 3.2379 -0.000696332 -0.000489783 -0.00240284 0 0 0 633
768 1 -19.7183 0.25394 -3.44685 -0.253323 -0.59667 0.761449 0.002756 6.3367 6.3367 3.2379 -0.000658588 0.00102992 -0.000612007 0 0 0 768
823 1 -14.7547 -5.17381 -6.44888 0.968602 0.211147 -0.082111 0.102394 6.3367 6.3367 3.2379 0.00176941 -0.00419875 -0.00207413 0 0 0 823
910 1 -24.9396 3.95291 -4.62645 -0.888801 0.0767299 -0.051528 0.448876 6.3367 6.3367 3.2379 0.000410134 0.00322606 -0.00277942 0 0 0 910
27 1 -11.0682 0.89319 -12.6729 0.252105 -0.483822 0.821027 0.168151 6.3367 6.3367 3.2379 0.0010513 -0.00333543 0.00143196 0 0 0 27
117 1 -10.2941 -3.93283 -3.61458 -0.309426 0.012756 0.950593 0.021587 6.3367 6.3367 3.2379 0.00012418 -0.00150797 -0.00192091 0 0 0 117
125 1 -4.5894 0.58508 -12.4914 -0.82002 0.023867 -0.534974 -0.201991 6.3367 6.3367 3.2379 6.64854e-05 0.000684167 0.00309711 0 0 0 125
126 1 -5.80074 -0.52987 -5.40609 0.699035 -0.329584 -0.433942 0.463055 6.3367 6.3367 3.2379 -0.000712823 0.00146296 0.00254426 0 0 0 126
323 1 -1.94951 1.79464 -7.59006 -0.019451 -0.619978 0.341969 -0.705908 6.3367 6.3367 3.2379 -8.22693e-05 -0.00166906 -0.000851942 0 0 0 323
332 1 -9.55098 2.37025 -7.69992 0.167703 0.355342 -0.194044 -0.898863 6.3367 6.3367 3.2379 0.000813977 0.00196153 -0.00115513 0 0 0 332
416 1 -0.27921 -1.33283 -3.12302 -0.206699 0.96331 0.153775 -0.075253 6.3367 6.3367 3.2379 0.00187385 0.000455661 0.00115075 0 0 0 416
635 1 -9.2629 -3.30604 -10.3987 0.650634 0.671667 0.295564 0.195399 6.3367 6.3367 3.2379 -0.000355065 0.000196011 0.000768931 0 0 0 635
727 1 -1.55326 4.68914 -3.14463 0.13551 0.959622 -0.001591 -0.246495 6.3367 6.3367 3.2379 0.00264024 -2.05404e-06 0.00396904 0 0 0 727
848 1 -3.79571 -5.24148 -6.63776 0.813852 -0.27796 -0.43552 -0.265907 6.3367 6.3367 3.2379 -0.00134444 9.74081e-05 -0.00167478 0 0 0 848
904 1 -11.0888 2.19655 -3.36234 0.582656 -0.217784 0.318778 0.715167 6.3367 6.3367 3.2379 -0.00242366 -0.00424529 0.000402636 0 0 0 904
996 1 -6.09314 -4.86978 -1.90242 -0.065967 0.372307 0.925304 0.029144 6.3367 6.3367 3.2379 -0.000864869 -0.00130793 -2.58984e-05 0 0 0 996
2 1 -25.5786 7.54743 -9.1398 -0.282963 0.478674 -0.817472 0.150141 6.3367 6.3367 3.2379 -0.00197622 0.00165756 0.00217167 0 0 0 2
19 1 -14.77 7.03387 -12.0197 -0.075788 -0.847975 0.510475 0.120868 6.3367 6.3367 3.2379 0.000848811 -0.00150233 0.000561979 0 0 0 19
108 1 -22.6547 9.96289 -4.07026 0.026416 0.896749 0.070393 0.436106 6.3367 6.3367 3.2379 0.00120837 0.000683269 -0.00130478 0 0 0 108
426 1 -13.7529 11.7716 -7.90831 -0.470482 0.349458 -0.800491 -0.125459 6.3367 6.3367 3.2379 -0.00299149 0.000534184 -0.00128835 0 0 0 426
539 1 -25.8421 14.0021 -7.79388 -0.547076 -0.832062 -0.02882 0.086888 6.3367 6.3367 3.2379 -0.00253453 -0.000501927 0.00170618 0 0 0 539
773 1 -16.5528 9.6476 -3.09245 0.194161 0.22975 -0.867865 -0.395383 6.3367 6.3367 3.2379 0.00319407 -7.34143e-05 -0.00011846 0 0 0 773
782 1 -20.1619 12.4937 -9.39736 -0.273848 0.735872 0.320348 -0.529979 6.3367 6.3367 3.2379 0.00225945 0.000516238 0.00265352 0 0 0 782
801 1 -26.6048 15.9754 -1.85233 0.626993 -0.738811 -0.191413 -0.156203 6.3367 6.3367 3.2379 0.002825 -0.000373532 0.000609963 0 0 0 801
993 1 -18.8355 12.8206 -4.63431 -0.818284 -0.164403 -0.541474 -0.100939 6.3367 6.3367 3.2379 0.00377084 0.000288897 0.00298001 0 0 0 993
998 1 -18.2731 7.04933 -7.0337 0.866046 -0.02541 0.178229 0.466426 6.3367 6.3367 3.2379 -0.000327953 0.00157183 0.00114762 0 0 0 998
41 1 -8.94401 11.5744 -6.29137 0.560425 -0.277046 0.74233 0.241071 6.3367 6.3367 3.2379 -0.00149534 0.00155936 0.00215275 0 0 0 41
173 1 -6.83469 8.73972 -2.53173 -0.022291 0.088035 0.233408 -0.968129 6.3367 6.3367 3.2379 0.00162686 0.00223788 0.000745861 0 0 0 173
244 1 -10.7338 10.9082 -12.4748 0.725641 -0.497189 0.46205 -0.112947 6.3367 6.3367 3.2379 -0.00234739 -5.0118e-05 0.00104441 0 0 0 244
276 1 -0.64686 7.68898 -9.72952 -0.459311 0.846972 0.267422 -0.012549 6.3367 6.3367 3.2379 -0.00148302 -0.0024901 -0.000459095 0 0 0 276
297 1 -12.7154 13.5543 -1.80474 -0.435859 -0.004513 0.899854 -0.016422 6.3367 6.3367 3.2379 0.000621763 0.00145395 -0.00170178 0 0 0 297
376 1 -11.965 6.7511 -6.31614 0.635608 -0.744374 -0.173084 0.109327 6.3367 6.3367 3.2379 -0.00215874 0.000201027 0.00484129 0 0 0 376