ITEM: TIMESTEP
100000
ITEM: NUMBER OF ATOMS
1000
ITEM: BOX BOUNDS pp pp pp
-27.2659 27.2659
-27.2659 27.2659
-27.2659 27.2659
ITEM: ATOMS id type xu yu zu quatw quati quatj quatk c_diameter[1] c_diameter[2] c_diameter[3] vx vy vz angmomx angmomy angmomz mol
1 1 -5.21694 -8.49674 -3.4742 0.84734 -0.452156 0.260083 -0.0996329 6.3367 6.3367 3.2379 0.000207866 0.000518988 -0.00134714 0.29406 -0.146838 0.244237 1 
2 1 -19.2146 16.596 -13.3495 -0.474271 -0.478541 0.731861 0.102204 6.3367 6.3367 3.2379 0.00156679 -0.00156372 -0.00290484 -0.0231692 -0.208383 0.0792235 2 
3 1 -21.4752 23.9192 15.5344 0.22985 0.0644932 -0.3377 0.910477 6.3367 6.3367 3.2379 0.00123919 -0.000476028 0.00320969 -0.0910077 0.404822 0.0518697 3 
4 1 12.8037 -6.99092 22.1156 0.789472 -0.569132 0.229642 0.00929817 6.3367 6.3367 3.2379 0.00107554 0.000882404 -0.00206067 -0.12388 -0.392738 -0.257734 4 
5 1 -4.12552 0.579445 -10.323 -0.404156 -0.111272 0.581605 -0.697145 6.3367 6.3367 3.2379 0.000340575 -0.000691354 -0.00245187 0.146862 0.0143574 -0.322429 5 
6 1 18.2284 24.728 -0.412283 0.215677 -0.184025 -0.615078 0.735729 6.3367 6.3367 3.2379 -2.84231e-05 0.000271758 -0.00092387 0.259053 0.510973 -0.199899 6 
7 1 -19.7929 -5.36772 11.6963 0.260218 0.132053 0.157495 -0.943421 6.3367 6.3367 3.2379 -0.000856216 -4.50677e-06 -0.00203941 0.211729 0.1348 -0.120843 7 
8 1 13.5744 4.56632 5.11305 0.215847 -0.395321 -0.631778 0.630863 6.3367 6.3367 3.2379 -0.00366776 -0.00253988 0.000325117 -0.00832666 0.1518 -0.153761 8 
9 1 14.5732 -5.84872 -13.2802 -0.435648 0.0569252 0.401196 -0.803749 6.3367 6.3367 3.2379 -0.0016457 0.000261169 -0.00363376 -0.282533 0.163188 0.0918798 9 
10 1 22.6321 23.6633 17.6126 -0.453018 -0.19944 -0.701404 -0.512865 6.3367 6.3367 3.2379 -0.00109367 0.000420908 -0.000161501 0.322559 0.136791 0.19054 10 
11 1 -23.274 0.460617 5.42305 -0.0495968 0.861827 -0.321454 0.389182 6.3367 6.3367 3.2379 0.000609835 0.000364448 -8.46749e-05 0.269317 0.234022 -0.0632736 11 
12 1 -3.44231 23.3177 -17.0941 0.473976 0.779733 0.0589708 0.404827 6.3367 6.3367 3.2379 0.00175811 0.00152284 0.000683447 0.395232 0.0844408 0.0071964 12 
13 1 19.323 20.3642 -13.3806 0.222192 0.332639 -0.622521 0.672644 6.3367 6.3367 3.2379 0.00364919 -0.00193511 -0.000489975 -0.123632 0.0473916 -0.159359 13 
14 1 -4.6222 11.3287 -16.3746 -0.336596 -0.815351 0.453154 0.128678 6.3367 6.3367 3.2379 -0.00235335 0.00298466 7.99066e-05 0.339226 -0.0546952 -0.037864 14 
15 1 7.20617 10.7821 -25.8669 0.55245 -0.539272 -0.489857 -0.404999 6.3367 6.3367 3.2379 -0.000690048 0.000941565 0.000117938 0.306784 -0.389337 -0.181843 15 
16 1 -4.78402 18.4951 14.4414 0.490564 -0.279805 0.727752 -0.389144 6.3367 6.3367 3.2379 0.00366485 -0.00198626 -0.00187076 0.14312 0.14673 0.375652 16 
17 1 20.4286 5.74762 1.46163 -0.184141 0.613765 0.441478 0.628078 6.3367 6.3367 3.2379 0.0003868 -0.00147457 -0.00227736 -0.337955 -0.219936 0.129761 17 
18 1 -19.7021 -15.5881 25.7041 0.118367 -0.23355 0.513962 0.816876 6.3367 6.3367 3.2379 -0.000355884 -0.00303328 0.00171265 0.26479 0.0049515 0.185289 18 
19 1 -20.3137 9.53419 -4.32533 -0.90219 -0.152817 -0.103514 0.389851 6.3367 6.3367 3.2379 0.00265541 -0.0045623 -0.0011401 0.251746 0.0868689 0.241624 19 
20 1 -4.55008 -5.80432 14.2824 -0.819354 0.114358 0.525272 -0.199177 6.3367 6.3367 3.2379 0.00237426 0.00186652 -0.00181098 -0.6024 -0.252935 0.101208 20 
21 1 -7.1687 -10.8664 -7.73648 0.503891 -0.140168 0.851648 -0.0337887 6.3367 6.3367 3.2379 0.00266713 -0.00213562 0.000870669 0.102951 0.0934351 -0.0146614 21 
22 1 -15.2879 3.33005 9.60746 0.0624497 -0.37301 -0.648488 0.660627 6.3367 6.3367 3.2379 -0.0010748 -0.000298841 0.00251354 -0.242422 0.0163769 0.186519 22 
23 1 19.3368 -3.42726 20.8566 -0.500407 -0.0635415 -0.531701 -0.680331 6.3367 6.3367 3.2379 0.000154747 0.000522085 0.000300623 -0.0143419 0.00748451 -0.1754 23 
24 1 3.75433 23.0994 -4.07618 0.73724 -0.256199 0.414831 0.467711 6.3367 6.3367 3.2379 -0.0010205 -0.00149333 -0.000835682 0.328384 0.269669 0.0517832 24 
25 1 -8.44388 25.4688 5.3971 0.119405 -0.146044 -0.364502 0.911895 6.3367 6.3367 3.2379 -0.00299216 -0.00250607 5.50226e-05 0.176163 0.339894 0.167454 25 
26 1 -1.77498 -24.3663 12.3181 0.314542 -0.793764 -0.520543 -0.00604187 6.3367 6.3367 3.2379 0.000131928 1.35819e-05 -0.000668936 0.539796 0.0573482 0.597792 26 
27 1 -1.74248 -18.1572 3.37994 -0.0142141 0.152612 -0.848598 -0.506349 6.3367 6.3367 3.2379 -0.0012729 0.000201842 -0.00170551 0.176903 0.432767 -0.257133 27 
28 1 -19.0839 -13.794 12.2396 0.80352 0.562862 -0.0449065 -0.188483 6.3367 6.3367 3.2379 -0.00277602 0.00197884 -0.0005922 0.0432375 0.353523 0.128281 28 
29 1 24.0273 -18.4932 13.3857 -0.331749 -0.502521 0.78947 0.118963 6.3367 6.3367 3.2379 -0.000634469 0.000349332 0.000276283 -0.0486405 0.173368 0.162412 29 
30 1 -10.3615 8.71672 19.2695 -0.312889 0.565042 -0.543741 0.535886 6.3367 6.3367 3.2379 0.000748747 -0.00244115 -0.000262224 -0.0931078 0.120137 -0.295603 30 
31 1 11.0871 16.809 1.35252 -0.213853 0.496116 -0.238906 0.806883 6.3367 6.3367 3.2379 -0.00112298 0.00094221 0.00208848 0.172914 0.106231 -0.439811 31 
32 1 -24.9947 26.8073 5.50492 0.514759 0.175762 0.431388 0.719747 6.3367 6.3367 3.2379 0.000712688 0.00190217 0.00082849 -0.105755 -0.21477 -0.280076 32 
33 1 -24.8266 5.04007 9.04721 0.108702 -0.653368 0.461534 0.590153 6.3367 6.3367 3.2379 -0.0023322 -0.000323953 0.00612797 0.408175 0.322771 -0.00836597 33 
34 1 -26.001 21.7472 -19.4353 -0.308715 -0.0390255 0.950317 0.00830678 6.3367 6.3367 3.2379 -0.00265184 0.000610158 -0.00189533 -0.449935 -0.338037 -0.163206 34 
35 1 9.49096 -1.50788 -21.2545 0.521681 0.0553984 -0.771178 0.360645 6.3367 6.3367 3.2379 0.00259448 -0.00149144 -0.00440539 -0.176588 0.319964 -0.156777 35 
36 1 25.5511 -4.33002 21.4281 0.0613305 0.0965184 -0.491538 -0.863315 6.3367 6.3367 3.2379 -0.000579538 -0.000108351 0.000290107 -0.130839 0.25044 -0.466457 36 
37 1 -16.1129 27.0448 5.5443 0.00256837 0.0991223 0.492036 -0.86491 6.3367 6.3367 3.2379 -0.00110047 0.000632603 0.00312809 -0.25058 0.152479 0.159341 37 
38 1 -11.2363 -19.565 -22.2303 -0.524502 0.638164 -0.277384 0.490614 6.3367 6.3367 3.2379 0.00126164 0.00051238 -0.00286435 -0.0836372 0.129897 -0.0197029 38 
39 1 -12.0748 4.36952 26.47 0.346588 0.645969 -0.369979 0.570715 6.3367 6.3367 3.2379 0.00176437 0.00137252 -0.00185139 0.219063 0.445735 0.00032123 39 
40 1 -23.468 -11.0295 14.9781 -0.485344 0.422182 0.716272 0.270477 6.3367 6.3367 3.2379 -0.00252929 -0.0025552 -0.00196057 -0.0486922 -0.137484 -0.0754251 40 
41 1 22.8652 -7.56668 -10.6678 0.22007 -0.790255 -0.430725 0.37622 6.3367 6.3367 3.2379 -0.000698418 -0.000121207 -0.00151452 0.329037 0.0653025 0.251886 41 
42 1 1.7515 14.3729 -6.97534 0.180941 0.865729 0.386854 -0.260992 6.3367 6.3367 3.2379 0.00169452 -0.000204584 1.01056e-05 0.474217 -0.242252 0.260763 42 
43 1 14.2778 -25.8836 -15.9067 -0.30901 -0.219845 0.365912 -0.849876 6.3367 6.3367 3.2379 0.000715299 0.00182125 -0.000371894 -0.457285 -0.073085 0.109501 43 
44 1 7.50306 -22.679 -3.48734 -0.500838 -0.700284 0.114956 0.495529 6.3367 6.3367 3.2379 0.00468176 0.000415074 -9.07797e-05 -0.441032 0.034543 -0.0256146 44 
45 1 8.10325 13.1356 -8.0813 0.198719 -0.145471 0.683289 -0.687361 6.3367 6.3367 3.2379 7.90288e-05 0.000805257 -0.000687088 -0.43347 -0.0677013 -0.122965 45 
46 1 -18.9703 9.06071 -11.8905 -0.136281 0.411032 -0.881828 0.186708 6.3367 6.3367 3.2379 0.00109088 -0.00159962 -0.000824246 0.247735 0.14973 -0.0945655 46 
47 1 3.45707 -4.75187 21.4543 0.423958 0.778463 0.396308 0.239155 6.3367 6.3367 3.2379 -0.000296298 -0.000476243 0.000971874 -0.165742 0.145731 -0.0383917 47 
48 1 3.57875 -21.1356 16.8888 -0.12393 -0.554793 -0.580873 0.582608 6.3367 6.3367 3.2379 0.00200174 0.00128549 -0.0018362 -0.0771484 -0.0758638 -0.0506366 48 
49 1 20.5098 -26.2485 -19.959 0.419379 -0.752871 -0.203835 -0.464497 6.3367 6.3367 3.2379 0.000377101 -0.00107627 -0.000707735 -0.167197 -0.570328 0.0814779 49 
50 1 13.5621 -11.371 -10.5599 0.0910847 -0.35213 -0.756943 0.542905 6.3367 6.3367 3.2379 0.00240945 -0.000538476 -0.00128388 -0.155526 0.3681 0.316845 50 
51 1 -8.88196 -2.61682 20.4672 0.646271 0.590037 0.2123 0.434878 6.3367 6.3367 3.2379 -0.001177 -0.0028617 -0.00189759 0.627433 -0.542123 -0.0699413 51 
52 1 26.3907 2.46042 -17.5231 0.174573 -0.415859 -0.892355 0.0169816 6.3367 6.3367 3.2379 0.000505594 0.000944396 0.000918975 -0.401406 0.449832 0.251019 52 
53 1 4.97604 -17.2629 -11.6171 0.79138 -0.3494 -0.47424 0.163504 6.3367 6.3367 3.2379 0.00143147 -0.00098619 -0.00205113 -0.0305808 0.0550683 -0.0339896 53 
54 1 -16.179 2.8632 -16.0512 -0.124446 -0.254306 -0.819847 -0.497686 6.3367 6.3367 3.2379 -0.00344918 -0.00110362 0.000899443 0.541383 0.244626 -0.284834 54 
55 1 0.527596 -9.43539 -11.6354 -0.830645 0.488606 0.261887 -0.0520427 6.3367 6.3367 3.2379 -0.00203343 0.000702371 0.00381541 0.40937 -0.247366 0.408967 55 
56 1 9.05145 -5.76546 4.23989 -0.674849 0.013569 -0.212474 0.706576 6.3367 6.3367 3.2379 0.00248737 -0.00093041 -0.00244974 -0.00882554 0.163727 -0.428612 56 
57 1 1.34335 11.6848 -21.1709 0.966231 0.102465 0.11419 -0.207025 6.3367 6.3367 3.2379 -0.00165646 -0.00177711 0.00100454 -0.0498216 0.266875 -0.348562 57 
58 1 -17.4141 2.49385 1.0253 -0.526107 0.206395 0.0660175 -0.822347 6.3367 6.3367 3.2379 -0.000981763 -0.000968298 0.000427656 0.0365677 -0.0313232 0.0632608 58 
59 1 -24.5668 19.5822 12.6108 0.167909 0.969779 -0.140419 0.107783 6.3367 6.3367 3.2379 -0.000619848 0.00223913 0.00117193 -0.144703 -0.349006 0.0490551 59 
60 1 1.54013 8.09402 9.68747 -0.0746841 0.720052 0.20096 -0.659972 6.3367 6.3367 3.2379 -8.56994e-05 0.00584858 -0.000575657 -0.508732 -0.0379309 0.155612 60 
61 1 25.6967 1.39348 26.7741 -0.330303 -0.167487 0.637767 -0.675352 6.3367 6.3367 3.2379 -0.000785993 0.00192816 0.000769915 0.0375971 -0.102797 0.0474032 61 
62 1 22.9608 -25.9867 -8.66509 0.666492 -0.491463 0.553099 0.0912895 6.3367 6.3367 3.2379 -0.00161767 -0.000541635 0.00053695 0.122857 0.0505908 -0.217159 62 
63 1 6.67808 -3.82582 -0.404032 -0.531291 0.387943 -0.209483 -0.723428 6.3367 6.3367 3.2379 0.000409122 -0.00108855 -0.0015689 0.187255 0.505941 -0.386498 63 
64 1 -0.749517 12.93 -0.993722 -0.0652994 -0.346989 0.76017 0.545414 6.3367 6.3367 3.2379 -0.000110205 -0.00180679 0.000359264 0.0359446 -0.337282 -0.0401886 64 
65 1 -25.828 -23.0035 7.08102 0.185368 -0.247134 -0.297685 -0.903298 6.3367 6.3367 3.2379 9.28874e-06 -0.00189465 4.21795e-05 -0.272363 -0.437197 0.015302 65 
66 1 19.4546 -8.39413 5.89482 -0.187515 -0.80205 -0.537893 -0.179515 6.3367 6.3367 3.2379 0.000571365 -0.000458265 -0.00376201 -0.111724 0.350158 0.00678547 66 
67 1 -2.51484 5.45771 -11.2353 -0.0402271 0.62744 -0.210152 0.74869 6.3367 6.3367 3.2379 -0.00121916 0.00175187 0.00124783 0.115443 -0.571925 -0.197138 67 
68 1 21.6283 17.2897 18.5444 -0.454891 0.136689 -0.713062 0.515687 6.3367 6.3367 3.2379 0.00188673 0.00117789 -0.00147121 0.0661305 -0.0970675 0.0122013 68 
69 1 -20.6791 5.31831 12.4493 -0.490496 -0.254934 -0.525852 0.646454 6.3367 6.3367 3.2379 -0.00101247 -0.00216373 -0.00351582 -0.128824 0.361051 -0.275145 69 
70 1 23.3569 14.5217 -5.11207 0.261405 -0.829929 0.482596 -0.0999309 6.3367 6.3367 3.2379 1.87213e-05 -0.000426002 -0.000727116 -0.350547 -0.293158 -0.556831 70 
71 1 -26.6277 -25.2796 -10.1866 0.107817 -0.614934 -0.618235 0.477512 6.3367 6.3367 3.2379 -0.00201035 0.000416132 0.000559776 0.329938 0.0220836 0.330913 71 
72 1 1.40048 2.48476 -9.40632 -0.919704 -0.232296 0.00325134 0.3165 6.3367 6.3367 3.2379 0.000297954 0.000697488 -0.00208354 -0.42422 -0.141678 0.513827 72 
73 1 -20.7096 27.1586 -2.01897 -0.717932 0.63449 -0.279316 0.063076 6.3367 6.3367 3.2379 0.00206859 -0.00140723 -0.000769043 0.137518 0.134969 0.0287415 73 
74 1 22.1922 1.42131 -12.3579 -0.653741 0.143293 -0.667388 0.326624 6.3367 6.3367 3.2379 0.00102208 -0.00216989 0.00124222 0.0298748 0.127471 -0.177318 74 
75 1 -25.7443 13.082 -24.0158 0.142914 -0.475035 -0.459368 -0.736816 6.3367 6.3367 3.2379 -0.000362844 0.00186116 0.000290715 0.204861 -0.210476 -0.153295 75 
76 1 19.9278 4.48612 -21.3268 -0.598358 -0.740266 0.293707 -0.087808 6.3367 6.3367 3.2379 -0.00083923 0.00298807 0.00162462 -0.335881 0.129515 -0.229789 76 
77 1 8.75037 -22.7092 -13.311 0.758473 0.208474 -0.133173 0.602927 6.3367 6.3367 3.2379 0.000226198 0.000199045 -0.0021135 0.0814603 -0.326606 -0.224903 77 
78 1 -27.0189 16.9952 -22.1623 0.43925 0.0919163 -0.738153 0.503728 6.3367 6.3367 3.2379 0.000300892 -0.00106575 -0.00220973 0.611439 -0.0119131 0.14263 78 
79 1 -20.4846 -10.4159 -9.32453 0.72919 0.474087 0.493261 -0.0147453 6.3367 6.3367 3.2379 0.000194146 0.000327847 0.000949804 0.505838 0.0327611 0.47575 79 
80 1 4.43288 18.5821 -10.6613 -0.899134 0.226407 0.143611 -0.345939 6.3367 6.3367 3.2379 0.000163792 -0.00148311 -0.000470957 -0.255259 0.268219 -0.112256 80 
81 1 -18.4437 -13.1858 -24.1717 -0.572697 -0.604768 -0.551353 -0.0477879 6.3367 6.3367 3.2379 0.00165057 0.00387748 0.000508467 -0.400739 0.10805 -0.137722 81 
82 1 -3.77713 9.28738 11.3152 -0.121835 0.377429 0.916494 0.0523641 6.3367 6.3367 3.2379 -0.00357332 0.00354173 0.00298441 0.133683 0.057247 0.544448 82 
83 1 3.79241 20.0793 13.9547 -0.488491 -0.399275 0.702685 -0.328921 6.3367 6.3367 3.2379 0.00375543 0.00186405 -0.00147971 -0.127581 0.222644 0.253664 83 
84 1 -5.07128 -17.3361 23.8067 0.264391 -0.60391 -0.303068 -0.688143 6.3367 6.3367 3.2379 0.00156147 -0.000393118 0.00168849 0.20276 0.412424 -0.18296 84 
85 1 -27.1316 19.7859 -3.09028 0.690665 0.200675 -0.588589 0.369152 6.3367 6.3367 3.2379 -0.000775794 -0.000632811 0.00134261 0.186002 -0.269212 -0.714937 85 
86 1 3.12302 -19.6939 0.993778 0.411732 0.256186 0.80997 -0.329839 6.3367 6.3367 3.2379 -0.00141624 0.00189557 -0.000690484 -0.189556 0.0237214 0.328056 86 
87 1 -25.1539 -14.3615 -10.6072 0.575766 0.633364 0.443214 0.266279 6.3367 6.3367 3.2379 0.000229805 -0.00156782 -0.00392524 0.370249 -0.228916 0.211693 87 
88 1 -24.7978 -14.5916 0.329017 0.753342 -0.63016 -0.0759653 -0.172058 6.3367 6.3367 3.2379 0.00188375 0.00210062 0.00334985 -0.176082 0.273594 0.167413 88 
89 1 -1.39881 17.5372 7.35421 0.6983 -0.476352 0.290664 0.448309 6.3367 6.3367 3.2379 0.00186233 0.001597 0.000785983 0.035459 0.209257 -0.188024 89 
90 1 4.50762 -23.751 -9.72322 -0.132357 -0.448098 0.821259 0.32745 6.3367 6.3367 3.2379 -0.000355707 -0.00647989 0.00384477 -0.176446 0.113184 -0.305075 90 
91 1 -25.2854 3.92088 -13.0995 -0.756374 0.475736 -0.348812 -0.282673 6.3367 6.3367 3.2379 -0.000391801 -0.000907172 -0.000593589 -0.157801 0.0428534 -0.166909 91 
92 1 15.5896 5.10442 0.284431 -0.373089 -0.0249062 -0.914072 -0.157026 6.3367 6.3367 3.2379 0.00278146 -0.000436669 0.000214819 0.344586 -0.178299 0.250501 92 
93 1 12.5122 25.5883 16.2798 -0.486179 -0.462778 -0.651717 -0.353174 6.3367 6.3367 3.2379 -0.00153412 1.73277e-05 -0.000428708 0.195758 -0.373243 -0.211498 93 
94 1 -19.7838 -9.54682 0.823483 -0.51816 -0.224412 -0.802819 0.191394 6.3367 6.3367 3.2379 -2.29432e-05 -0.00343707 0.00023181 0.219792 -0.250817 -0.736971 94 
95 1 -3.78836 -22.8148 17.6033 0.510683 -0.766559 -0.364403 0.137117 6.3367 6.3367 3.2379 0.00319926 0.00151058 -0.000526062 -0.0853138 -0.290778 -0.119956 95 
96 1 -10.5831 25.6655 -9.95958 -0.227922 -0.318136 0.236958 0.889209 6.3367 6.3367 3.2379 5.32494e-05 0.00153565 -0.00175832 0.135387 -0.189271 -0.00330079 96 
97 1 -6.21323 -20.7947 -19.8298 -0.0947021 -0.229937 -0.640009 0.727014 6.3367 6.3367 3.2379 -0.00242713 -0.000694172 0.00137034 -0.0773659 0.000906277 -0.242303 97 
98 1 13.377 20.5316 -22.0712 0.604411 0.634388 -0.404583 -0.261826 6.3367 6.3367 3.2379 -0.00303175 -0.00315153 0.000545021 -0.103586 -0.190241 -0.036793 98 
99 1 17.682 -21.0805 7.76944 -0.504107 -0.538496 -0.468793 -0.485933 6.3367 6.3367 3.2379 0.00115328 -0.000212618 0.00162791 -0.405425 -0.267528 0.288555 99 
100 1 -26.3654 7.60942 -0.492646 0.449376 -0.40523 -0.738549 -0.297313 6.3367 6.3367 3.2379 -0.000731105 -0.00106034 0.00419814 -0.158862 0.125314 -0.328127 100 
101 1 -3.56177 -5.02305 8.56593 -0.239004 0.874125 0.258118 -0.3349 6.3367 6.3367 3.2379 -0.00128293 -0.000263516 0.00334925 0.0361981 0.199814 -0.0604515 101 
102 1 7.12208 -18.1734 14.4714 0.563368 -0.0828953 0.450957 0.687301 6.3367 6.3367 3.2379 0.00315738 0.000364214 -0.000751065 -0.191742 -0.132387 0.00696045 102 
103 1 -2.11688 18.767 1.95476 0.249856 0.380813 0.34868 0.819131 6.3367 6.3367 3.2379 -0.00143111 -0.00105261 -0.00118841 0.0900467 0.0894368 -0.0695447 103 
104 1 -10.3216 -7.71613 -3.79908 -0.599266 -0.0362909 0.79971 -0.00520883 6.3367 6.3367 3.2379 -0.00183097 -0.000346996 -2.85812e-05 -0.000690102 0.145225 0.0795315 104 
105 1 14.4292 3.29386 -26.9217 -0.136791 -0.279801 -0.194922 0.930057 6.3367 6.3367 3.2379 0.00110364 0.000912985 0.00250957 0.107756 0.121824 0.163912 105 
106 1 -22.0305 16.7866 8.94879 -0.381217 0.841705 -0.361946 0.123295 6.3367 6.3367 3.2379 -0.00152266 0.00253446 -0.00224663 -0.321881 -0.0787716 0.147348 106 
107 1 -14.1742 7.63703 23.4163 -0.556993 -0.342241 0.217796 -0.724703 6.3367 6.3367 3.2379 0.00107419 -0.00316232 -0.00261117 0.191059 -0.319635 -0.122763 107 
108 1 -0.108283 12.6249 22.3659 0.406747 -0.859717 -0.307905 0.0252708 6.3367 6.3367 3.2379 0.00295415 -0.002993 -0.000349032 0.0617257 0.278143 -0.159964 108 
109 1 12.658 8.40672 -21.8772 -0.158308 -0.230414 -0.0945593 0.955462 6.3367 6.3367 3.2379 -0.000227428 0.00106326 0.00304056 0.135438 -0.0966161 0.0183164 109 
110 1 10.0842 -2.75119 -15.561 0.997663 0.00756163 0.0317306 -0.0600346 6.3367 6.3367 3.2379 -0.000353667 -0.00161018 -0.000611093 0.387693 -0.370893 0.309492 110 
111 1 -5.56654 16.2624 -1.58312 -0.275179 0.925806 0.1249 0.227066 6.3367 6.3367 3.2379 0.00261905 1.69773e-05 0.00239995 -0.304044 -0.136153 -0.137742 111 
112 1 23.9041 6.86177 20.8637 0.376192 0.826491 -0.184513 -0.375963 6.3367 6.3367 3.2379 0.00159931 -0.00193761 -0.000433393 -0.123581 -0.365422 -0.426347 112 
113 1 -14.9337 -8.83868 -27.1114 0.306507 0.0126692 -0.402121 0.862665 6.3367 6.3367 3.2379 0.000796895 -0.00365975 0.00276983 -0.0295695 0.425468 0.126273 113 
114 1 -26.6537 -24.5122 2.23246 0.285918 -0.467674 -0.834249 -0.0596704 6.3367 6.3367 3.2379 0.00182489 0.0010156 0.00196921 0.113682 -0.114528 -0.352909 114 
115 1 -24.5602 9.71377 10.0257 -0.405222 -0.310368 -0.508453 0.6935 6.3367 6.3367 3.2379 0.00264601 -0.00122977 0.0018041 -0.19108 0.200173 -0.00650491 115 
116 1 6.15122 4.88487 10.8491 0.4186 -0.841478 -0.33907 0.0414728 6.3367 6.3367 3.2379 0.000427681 -0.00174204 0.00207232 -0.212773 0.297736 0.146475 116 
117 1 -8.42648 11.4871 -5.39635 -0.711283 0.0938181 0.692763 -0.0731691 6.3367 6.3367 3.2379 -0.00176878 0.00230366 -0.00139949 -0.806686 0.414238 0.319074 117 
118 1 11.2697 8.53582 9.97652 0.0723421 -0.29295 0.86839 0.393505 6.3367 6.3367 3.2379 0.000469071 0.00113324 0.00176536 0.239087 0.0864969 -0.429738 118 
119 1 -14.4524 -7.93992 5.02918 0.573015 0.0807365 -0.799926 0.158916 6.3367 6.3367 3.2379 -0.0018087 0.00292506 -0.000172952 -0.281765 -0.179789 -0.0551422 119 
120 1 -10.9012 14.6991 -8.23709 -0.517342 -0.272963 -0.747001 0.315971 6.3367 6.3367 3.2379 0.00143822 -0.000162166 -0.0020111 0.0844707 -0.155578 -0.0146629 120 
121 1 -12.2183 -23.9375 5.18822 -0.646833 -0.128899 -0.039092 -0.750643 6.3367 6.3367 3.2379 0.000795119 0.00103916 -0.00152403 0.172856 0.0261312 -0.331836 121 
122 1 10.7466 8.70576 -8.24166 -0.309286 0.0365145 -0.346132 0.884987 6.3367 6.3367 3.2379 0.000443506 0.00222988 0.000287878 -0.00734156 -0.0949683 0.533426 122 
123 1 4.54956 26.1316 4.77698 0.297347 0.92669 0.227405 -0.0334323 6.3367 6.3367 3.2379 -0.000785717 -0.00214856 0.00112571 0.0520904 0.255896 0.408079 123 
124 1 12.8101 26.8286 -20.3624 -0.115685 -0.72416 0.678113 -0.04869 6.3367 6.3367 3.2379 -0.000206526 -0.00171583 -0.00278518 -0.124794 -0.0563756 -0.511265 124 
125 1 -22.095 21.9429 -3.79744 0.734003 0.588691 -0.0192496 0.3381 6.3367 6.3367 3.2379 0.00134978 0.00456998 -0.000550042 0.215039 0.310688 0.0472267 125 
126 1 1.03531 -17.4578 21.604 0.103786 -0.819151 0.545285 0.144516 6.3367 6.3367 3.2379 0.00212796 0.000741249 0.00116307 -0.177703 0.124166 -0.16804 126 
127 1 19.0447 11.301 -23.0141 -0.233036 0.305161 -0.79968 -0.461608 6.3367 6.3367 3.2379 0.000178108 -0.00167438 2.61203e-05 -0.205432 0.104551 -0.256005 127 
128 1 5.65939 8.71306 18.5984 0.00387984 0.441009 0.523752 -0.728821 6.3367 6.3367 3.2379 -0.00353427 0.00191889 0.00320167 0.0929855 0.163663 0.0553087 128 
129 1 -19.1495 -12.9575 -18.8815 -0.800622 -0.345382 0.118868 0.474959 6.3367 6.3367 3.2379 0.000789466 -0.000136904 0.00103861 0.147063 -0.0914832 0.170153 129 
130 1 -16.6136 20.1385 -11.6036 0.667225 0.0603046 -0.560724 0.486583 6.3367 6.3367 3.2379 0.000968792 0.000839339 -0.00309694 0.330132 0.307198 0.0339907 130 
131 1 -12.158 -20.6492 8.38928 0.216583 -0.203437 0.241814 0.923705 6.3367 6.3367 3.2379 -0.0038776 0.00251937 0.000375598 -0.228434 -0.428827 -0.320861 131 
132 1 20.3234 -10.7803 -19.4476 -0.227061 -0.738465 -0.511854 0.375657 6.3367 6.3367 3.2379 0.000387533 0.000977217 -0.000939348 -0.398869 -0.226513 0.291977 132 
133 1 8.21685 0.742083 13.4261 0.134231 0.0323155 0.971069 0.194841 6.3367 6.3367 3.2379 -0.0045468 -0.000480932 -0.00154203 0.233966 -0.216737 -0.293561 133 
134 1 17.2191 19.6305 -5.59748 0.131739 0.434388 0.857429 0.242418 6.3367 6.3367 3.2379 0.000436082 -0.00327795 -0.00279767 -0.0110666 -0.264338 -0.0535464 134 
135 1 -26.3093 20.3789 -25.0086 -0.68081 0.671792 -0.2325 -0.176457 6.3367 6.3367 3.2379 -0.000391537 0.00325248 -0.00186974 0.183679 0.0259336 0.163172 135 
136 1 -12.0404 23.0498 6.83834 0.630614 -0.392192 0.61163 0.272801 6.3367 6.3367 3.2379 0.000210823 0.00308615 -0.000879469 -0.204628 0.0405235 -0.539873 136 
137 1 -2.76122 -19.4278 -13.5693 -0.0573552 -0.195738 -0.376689 -0.903605 6.3367 6.3367 3.2379 -0.00612152 0.00152052 0.00175304 0.130606 0.195772 -0.236996 137 
138 1 -3.71578 12.1665 7.72696 0.392476 -0.68461 -0.573604 -0.219658 6.3367 6.3367 3.2379 0.00143713 -0.00038655 8.56851e-05 -0.184025 0.0360179 0.130804 138 
139 1 12.7281 26.4014 -1.01927 0.370443 0.67764 0.012677 -0.63515 6.3367 6.3367 3.2379 -0.00133079 -0.00134816 -0.000138209 0.471425 -0.0982553 -0.119793 139 
140 1 -14.406 9.90515 1.16806 0.897386 -0.0418261 -0.021336 0.43874 6.3367 6.3367 3.2379 0.00153761 0.00115719 0.000272708 0.241727 -0.0923712 0.528831 140 
141 1 24.1894 -11.5644 1.41398 0.292269 0.485766 0.58359 -0.581406 6.3367 6.3367 3.2379 0.00181051 -0.000971672 -0.00191883 0.0575541 -0.57213 -0.00508803 141 
142 1 10.3895 7.08692 1.51186 -0.988849 -0.0159156 -0.1395 0.0496486 6.3367 6.3367 3.2379 -0.000695877 0.0019799 0.00115491 -0.158113 0.00297667 -0.283476 142 
143 1 -5.24377 2.73774 22.4025 0.63077 -0.365487 0.0136535 -0.68437 6.3367 6.3367 3.2379 -0.000819173 -0.00158054 -0.00110261 0.243116 -0.0322958 0.211582 143 
144 1 17.0744 -11.927 9.09234 0.127871 -0.684769 -0.340765 0.631363 6.3367 6.3367 3.2379 0.00395911 -0.00227095 0.000820474 0.0162324 -0.0845755 -0.175881 144 
145 1 -9.57012 -4.17494 -20.2537 -0.789799 0.473175 0.248833 -0.300676 6.3367 6.3367 3.2379 0.00219323 -0.00100185 -0.00136091 -0.148398 0.0114256 0.108684 145 
146 1 -11.9983 16.1101 11.7563 0.423526 -0.771347 -0.359476 0.310528 6.3367 6.3367 3.2379 0.000665035 0.00059487 -0.00196457 0.141053 0.476739 0.00329885 146 
147 1 -6.87732 20.3402 5.16538 -0.366139 -0.92291 -0.117831 0.0171671 6.3367 6.3367 3.2379 0.000239873 0.00153965 -0.00156977 0.0129733 0.0777126 -0.0491257 147 
148 1 14.3175 6.14132 -11.8441 0.148778 0.583141 -0.305318 -0.737965 6.3367 6.3367 3.2379 -0.000266888 -0.00134741 0.00107562 0.288112 0.0420523 0.16088 148 
149 1 -25.2879 -5.65926 -17.177 0.551064 0.773704 0.027616 -0.311364 6.3367 6.3367 3.2379 -0.00151379 0.00185023 -0.00142083 -0.0859072 -0.157582 -0.0768776 149 
150 1 26.8963 -17.489 -22.3801 -0.463635 0.797464 -0.30451 -0.237419 6.3367 6.3367 3.2379 0.000273542 -0.00119697 -0.00036965 -0.208465 0.505002 0.282771 150 
151 1 19.5363 20.5447 8.35782 0.956558 0.0873937 0.277098 0.0239934 6.3367 6.3367 3.2379 -0.00161637 -0.00352428 -0.000217436 -0.138574 -0.0541859 -0.0773466 151 
152 1 3.14327 4.19405 15.6463 -0.120615 0.710217 -0.604393 -0.340225 6.3367 6.3367 3.2379 6.62019e-05 0.00266098 -0.00135458 0.0410882 -0.348171 -0.297461 152 
153 1 12.6081 15.0764 14.7276 0.324529 -0.846029 -0.0373699 -0.42133 6.3367 6.3367 3.2379 0.0012772 0.00235576 0.00165021 0.37842 -0.00408179 0.0589212 153 
154 1 -9.82242 27.2374 12.6934 -0.057388 -0.614767 -0.346019 -0.706427 6.3367 6.3367 3.2379 0.00116545 0.000178984 0.00265524 -0.0708299 -0.259098 0.217371 154 
155 1 25.241 -3.13342 -8.88611 0.16315 0.699093 0.147828 -0.680292 6.3367 6.3367 3.2379 0.00124252 0.000688005 -0.0018582 0.149062 -0.282041 0.136984 155 
156 1 11.3721 20.5456 24.5503 -0.423373 0.112864 -0.464206 -0.769759 6.3367 6.3367 3.2379 0.00230642 0.0016924 0.000493682 0.225436 -0.233819 -0.245662 156 
157 1 22.0864 -13.0236 22.5206 0.816762 0.510126 -0.0960621 0.25188 6.3367 6.3367 3.2379 0.000526192 -0.000497501 -0.000164931 -0.0400673 0.293083 -0.0881902 157 
158 1 18.4943 24.0269 -21.9264 0.869152 -0.0646216 0.489547 -0.0272588 6.3367 6.3367 3.2379 -0.00105963 -0.000963417 0.00294787 0.100298 -0.05822 -0.238599 158 
159 1 17.2716 -0.119471 16.6321 -0.0220966 -0.512656 0.229561 -0.827041 6.3367 6.3367 3.2379 -0.00232286 0.00149932 -0.0020055 -0.0436572 -0.102249 -0.286831 159 
160 1 -23.7069 -9.54668 4.74841 0.266416 -0.661853 0.327567 0.619413 6.3367 6.3367 3.2379 0.00204265 -0.000265852 0.000227737 0.503484 -0.11018 -0.111028 160 
161 1 16.9955 -17.8799 2.17249 -0.351232 0.467235 -0.382993 0.715293 6.3367 6.3367 3.2379 0.000343144 0.000225059 0.000819746 -0.399233 0.18671 -0.259202 161 
162 1 6.39305 14.7535 5.42082 -0.87645 0.0214474 0.392666 0.27783 6.3367 6.3367 3.2379 -0.00262582 0.00155866 -0.000816954 0.292558 -0.188113 0.103807 162 
163 1 -12.7608 -15.0035 25.6085 -0.0943885 0.153095 -0.172272 0.968491 6.3367 6.3367 3.2379 -0.000183065 -0.00220986 0.000854326 -0.0645717 0.116443 -0.287227 163 
164 1 -4.95387 12.0484 19.9497 -0.622631 0.262287 0.707929 0.205844 6.3367 6.3367 3.2379 -0.00379741 9.81668e-05 0.00467133 -0.0640829 0.102204 0.0013225 164 
165 1 -4.77543 0.123651 12.71 -0.498727 0.237334 -0.783232 -0.285465 6.3367 6.3367 3.2379 0.000956577 -0.000118952 -0.00150947 0.0708639 -0.420788 0.0197087 165 
166 1 -1.23798 4.81102 7.58985 0.679793 -0.117339 -0.619758 0.374183 6.3367 6.3367 3.2379 0.00071128 0.00119164 0.00205314 0.351074 -0.317662 -0.0657232 166 
167 1 26.1344 -9.70706 20.6962 -0.490928 0.45218 0.477111 -0.571741 6.3367 6.3367 3.2379 -0.00291866 -0.000837454 4.27426e-05 0.369346 0.213766 0.167465 167 
168 1 -21.323 1.4859 17.1124 0.0550123 -0.645986 0.713965 -0.264442 6.3367 6.3367 3.2379 0.000949391 -0.00372894 -0.000747121 -0.107382 0.408775 -0.0909245 168 
169 1 -5.7683 -19.6819 12.7798 0.213663 0.00697011 -0.797463 0.564227 6.3367 6.3367 3.2379 7.30292e-05 0.00036546 -0.00100273 -0.100866 -0.24706 -0.0651403 169 
170 1 10.9137 -11.0329 -3.3509 -0.357686 -0.699934 0.305642 -0.537341 6.3367 6.3367 3.2379 -2.33248e-05 -0.000672027 0.000858794 0.0186354 0.838804 -0.255696 170 
171 1 13.9914 1.84443 11.7219 0.808314 0.517847 -0.219681 0.17379 6.3367 6.3367 3.2379 -0.00131079 0.000527677 -0.00105875 -0.125926 0.199128 -0.00154166 171 
172 1 -19.6361 10.9776 8.51398 0.290799 0.471992 0.0665259 -0.829598 6.3367 6.3367 3.2379 -0.000931886 0.00157101 0.00273805 0.190236 -0.405984 0.115069 172 
173 1 -19.5497 -18.2096 14.5357 -0.459768 -0.266459 -0.472507 -0.7031 6.3367 6.3367 3.2379 -0.00165385 -0.00262945 0.000549439 0.330211 0.1683 -0.141661 173 
174 1 20.4174 24.1517 26.6249 0.806268 0.359095 0.0170706 -0.469777 6.3367 6.3367 3.2379 0.00156004 0.0035113 -0.00243239 -0.479782 -0.133809 0.370824 174 
175 1 -5.32841 -16.5134 -1.06328 0.330783 -0.802507 -0.289524 -0.403411 6.3367 6.3367 3.2379 -0.00153916 3.7825e-05 -0.000680462 0.241812 -0.305118 0.00687513 175 
176 1 9.32487 -14.1874 17.0314 0.237778 -0.234904 -0.575449 0.746418 6.3367 6.3367 3.2379 0.00449734 -0.00108394 -0.00187417 0.231758 0.115938 0.0768495 176 
177 1 1.91204 -3.03708 25.9645 0.708376 -0.654496 -0.257793 -0.0581467 6.3367 6.3367 3.2379 0.00313166 0.00102234 0.00121592 0.184009 -0.136607 0.365177 177 
178 1 15.1775 8.44642 12.79 0.192287 0.668036 -0.420837 -0.582794 6.3367 6.3367 3.2379 -0.00194855 0.00046387 0.00403411 0.661707 -0.409907 -0.480308 178 
179 1 -1.82145 8.70038 2.33308 -0.743252 -0.546747 -0.255525 -0.288707 6.3367 6.3367 3.2379 -0.00172604 -8.342e-05 -0.000262121 -0.15332 -0.461625 0.105949 179 
180 1 7.22128 6.44168 -23.5816 -0.322509 -0.29142 0.721659 0.538768 6.3367 6.3367 3.2379 0.00225938 -0.00158565 0.0010676 -0.523951 0.173894 -0.0797038 180 
181 1 -12.484 -17.9821 -12.6002 -0.128879 -0.871489 0.211098 -0.42348 6.3367 6.3367 3.2379 0.00167117 0.00254506 1.41992e-05 -0.361843 -0.44326 -0.0998505 181 
182 1 -16.2759 15.996 -9.16655 0.563781 0.267169 0.514284 -0.588459 6.3367 6.3367 3.2379 0.00110974 -0.000596433 -0.00106515 -0.0837734 -0.0682841 -0.382991 182 
183 1 12.5647 -7.62426 -8.19668 -0.0963 0.295248 0.91876 -0.243794 6.3367 6.3367 3.2379 -0.000117562 -0.000756772 0.000266494 -0.0130989 -0.223748 0.24869 183 
184 1 -0.179483 -18.3684 13.5712 0.0937849 0.485087 -0.538522 -0.68256 6.3367 6.3367 3.2379 -1.87441e-05 -9.69714e-05 0.00209679 -0.0154308 -0.0663422 0.232149 184 
185 1 -2.73113 -3.35891 0.68865 -0.228026 -0.385022 -0.881123 -0.15292 6.3367 6.3367 3.2379 -0.00307097 -0.0025322 -0.00377258 -0.302236 -0.108655 -0.167757 185 
186 1 -22.1488 -25.0435 -12.7289 0.129341 0.810006 0.477889 0.314298 6.3367 6.3367 3.2379 -0.000762131 0.0012636 0.00481567 0.00495599 0.314586 -0.0538767 186 
187 1 -22.0167 8.15279 27.1933 0.232267 -0.708458 -0.666361 0.0101191 6.3367 6.3367 3.2379 -0.00229938 -0.00417962 0.00154953 -0.0369318 -0.125916 0.0670054 187 