LAMMPS data file via write_data, version 2 Jun 2022, timestep = 5000000

12000 atoms
70 atom types
15000 bonds
258 bond types
18000 angles
164 angle types
24000 dihedrals
47 dihedral types
6000 impropers
5 improper types

-0.1073401100021627 51.933340109999904 xlo xhi
-0.1073401100021627 51.933340109999904 ylo yhi
-0.1073401100021627 51.933340109999904 zlo zhi

Masses

1 15.9994
2 15.9994
3 15.9994
4 15.9994
5 15.9994
6 14.0067
7 14.0067
8 14.0067
9 14.0067
10 14.0067
11 14.0067
12 12.011
13 12.011
14 13.019
15 14.027
16 15.035
17 16.043
18 14.027
19 12.011
20 1.008
21 1.008
22 1
23 32.06
24 63.546
25 63.546
26 55.847
27 65.37
28 24.305
29 40.08
30 39.948
31 18.9984
32 35.453
33 79.904
34 12.011
35 15.9994
36 22.9898
37 35.453
38 12.011
39 35.453
40 1.008
41 32.06
42 12.011
43 15.9994
44 12.011
45 35.453
46 18.9984
47 12.011
48 13.019
49 15.9994
50 12.011
51 15.9994
52 14.0067
53 15.035
54 126.90447
55 35.453
56 10.811
57 78.95999999999999
58 1.008
59 35.453
60 79.904
61 15.9994
62 14.0067
63 12.011
64 12.011
65 14.0067
66 14.0067
67 15.9994
68 28.08
69 30.9738
70 26.98154

Pair Coeffs # lj/cut/coul/long

1 0.305714 2.76007
2 0.412295 2.62585
3 0.203061 2.95484
4 0.252656 2.84916
5 0.155394 3.16565
6 0.152915 3.13647
7 0.0700622 3.5722
8 0.152915 3.13647
9 0.104651 3.34113
10 0.152915 3.13647
11 0.152915 3.13647
12 0.0663015 3.58118
13 0.00167194 6.63949
14 0.0226791 5.01918
15 0.098122 4.07038
16 0.207254 3.74792
17 0.302012 3.70995
18 0.11455 3.95474
19 0.120138 3.74119
20 0.0282937 2.37341
21 0 0
22 0 0
23 0.455513 3.30769
24 2.039 1.5184
25 2.039 1.5184
26 0 0
27 1.107 1.68112
28 0.0747249 1.93323
29 0.121156 2.81311
30 0.238148 3.40984
31 0.10897 2.94006
32 0.300087 3.46982
33 0.69792 3.6508
34 0.243126 3.60124
35 0.131455 3.17694
36 0.00509651 3.12117
37 0.162149 4.09571
38 0.101741 3.40006
39 0.299511 3.44
40 0.0197496 2.20219
41 0.310038 3.55995
42 0.207254 3.74792
43 0.409923 2.63004
44 0.0544087 3.7739
45 0.270582 3.44757
46 0.0828967 3.07717
47 0.0970049 3.3611
48 0.117014 3.91992
49 0.203061 2.95484
50 0.105027 3.74991
51 0.210013 2.95998
52 0.169966 3.25006
53 0.207254 3.74792
54 0.836845 3.84961
55 0.329921 3.26983
56 0.0663015 3.58118
57 0.455513 3.30769
58 0 0
59 0.329921 3.26983
60 0.580843 3.89995
61 0.119432 3.40025
62 0.1399 3.9019
63 0.0734574 3.52053
64 0.245018 2.81144
65 0.142655 4.06776
66 0.219779 3.64529
67 0.119497 3.1
68 0.584786 3.38557
69 0.584786 3.38557
70 1.107 1.68112

Bond Coeffs # harmonic

1 375.239 1
2 446.941 1
3 349.274 1.09
4 1109.29 1.12
5 600.242 1.23
6 500.418 1.25
7 499.732 1.32
8 375.003 1.33
9 448.144 1.33
10 498.877 1.33
11 450.617 1.34
12 502.116 1.34
13 450.906 1.36
14 500.679 1.38
15 399.904 1.39
16 498.726 1.39
17 400.057 1.4
18 399.792 1.43
19 450.132 1.43
20 300.222 1.435
21 449.843 1.47
22 299.976 1.48
23 399.968 1.48
24 450.226 1.48
25 450.108 1.5
26 299.844 1.52
27 400.034 1.53
28 299.851 1.61
29 299.727 1.63
30 205.976 1.78
31 449.816 1.78
32 449.828 1.83
33 300.045 1.87
34 59.9679 1.98
35 60.0382 2
36 500.307 2.04
37 63.0357 2.21
38 554.493 1
39 349.928 1.1
40 599.794 1.758
41 449.829 1.53
42 444.341 1.93799
43 599.679 1.76
44 501.026 1.265
45 448.656 1.35
46 555.129 1.63299
47 350.249 2.33839
48 600.161 2.90283
49 445.884 2.79388
50 443.815 2.91189
51 409.328 2.077
52 600.173 2.87407
53 88.4321 1.1
54 56.1663 1.84
55 513.862 1.01
56 310.707 1.41
57 442.161 1.02
58 239.006 1.46
59 513.862 1.29
60 442.161 0.972
61 812.62 1.22
62 466.061 1.22
63 239.006 1.54
64 179.254 1.56
65 227.055 1.54
66 106.358 1.76
67 131.453 1.69
68 203.155 1.75
69 203.155 1.51
70 143.403 1.57
71 179.254 0.971
72 191.205 1.5
73 262.906 1.45
74 549.713 1.52
75 83.652 1.03
76 191.205 1.74
77 191.205 1.72
78 227.055 1.64
79 203.155 1.67
80 191.205 1.66
81 215.105 1.65
82 513.862 1.31
83 155.354 1.01
84 35.8509 1.89
85 101.577 1.93
86 155.354 1.36
87 167.304 1.79
88 114.723 1.35
89 155.354 1.39
90 203.155 1.38
91 227.055 0.983
92 155.354 1.3
93 418.26 1.08
94 155.354 1.9
95 1314.53 1.16
96 143.403 1.8
97 155.354 1.42
98 478.011 0.984
99 119.503 1.08
100 119.503 1.91
101 418.26 1.03
102 525.813 1.28
103 131.453 1.22
104 143.403 1.11
105 1195.03 1.21
106 466.061 1.07
107 956.023 1.21
108 693.117 1.21
109 87.2371 1.85
110 394.359 1.11
111 109.943 2.09
112 131.453 1.82
113 99.1874 1.96
114 56.1663 1.86
115 167.304 1.21
116 167.304 1.28
117 143.403 1.71
118 131.453 1.6
119 454.111 1.21
120 41.826 1.61
121 131.453 1.94
122 155.354 1.59
123 143.403 2.1
124 119.503 2.12
125 57.3614 2.13
126 203.155 1.26
127 1195.03 1.14
128 191.205 1.23
129 788.719 1.3
130 239.006 1.31
131 59.7514 2.04
132 82.457 1.34
133 621.415 0.938
134 310.707 1.16
135 34.6558 2.07
136 60.9465 1.16
137 93.2122 2.16
138 43.021 2.23
139 23.9006 2.05
140 896.272 1.19
141 728.967 1.47
142 394.359 1.57
143 1195.03 1.18
144 54.9713 1.87
145 1063.58 1.17
146 215.105 1.13
147 59.7514 2.02
148 179.254 1.07
149 250.956 1.14
150 155.354 1.06
151 537.763 1.46
152 812.62 1.17
153 92.0172 2.15
154 239.006 1.04
155 60.9465 1.4
156 1314.53 1.11
157 466.061 1.56
158 752.868 1.49
159 501.912 1.54
160 35.8509 2.17
161 35.8509 2.27
162 669.216 1.45
163 764.818 1.25
164 848.47 1.27
165 561.663 1.16
166 1434.03 1.14
167 501.912 1.17
168 537.763 1.19
169 920.172 1.14
170 227.055 1.24
171 1434.03 1.13
172 89.6272 2.91
173 57.3614 2.24
174 418.26 0.743
175 239.006 1.2
176 111.138 2.33
177 96.7973 2.42
178 83.652 1.32
179 1159.18 1.2
180 1314.53 1.2
181 430.21 1.58
182 53.7763 1.47
183 1.55354 2.77
184 5.13862 2.25
185 100.382 2.18
186 50.1912 1.52
187 93.2122 2.19
188 27.4857 1.48
189 1912.05 1.07
190 8.60421 2.8
191 87.2371 2.52
192 0.669216 2.79
193 812.62 1.16
194 1.79254 2.68
195 406.31 1.59
196 119.503 1.18
197 34.6558 2.54
198 1792.54 1.1
199 824.57 1.29
200 33.4608 2.44
201 107.553 2.41
202 112.333 2.36
203 20.3155 1.43
204 2.27055 2.57
205 19.1205 2.47
206 0.764818 2.71
207 1553.54 1.12
208 3.70459 2.75
209 501.912 1.14
210 0.717017 2.86
211 10.5163 2.64
212 1912.05 0.985
213 1.91205 2.61
214 7.40918 2.62
215 59.7514 2.46
216 3.58509 2.66
217 1.31453 2.72
218 58.5564 1.63
219 573.614 1.12
220 37.0459 2.32
221 16.7304 1.44
222 1553.54 1.16
223 7.17017 2.69
224 10.0382 2.49
225 3.22658 2.92
226 0.82457 2.29
227 9.79924 2.4
228 1.03967 2.37
229 1.55354 2.94
230 5.85564 2.95
231 1.67304 2.96
232 0.0131453 2.56
233 5.25813 2.59
234 15.5354 2.38
235 836.52 1.12
236 1.91205 2.5
237 2.39006 2.3
238 585.564 1.04
239 3.34608 2.99
240 0.967973 2.34
241 1.07553 2.98
242 2.27055 2.74
243 1063.58 1.16
244 812.62 1.5
245 1.31453 2.84
246 0.322658 2.82
247 908.222 1.23
248 466.061 1.05
249 3.34608 2.88
250 1434.03 1.18
251 1673.04 1.15
252 6.33365 2.9
253 1027.72 1.24
254 418.26 1.9
255 2270.55 1.08
256 1434.03 1.21
257 764.818 0.975
258 0 0

Angle Coeffs # harmonic

1 45.3116 90
2 50.0917 90
3 47.7712 96
4 54.9551 100
5 47.5559 103
6 55.0345 104
7 50.1709 108
8 30.1731 109.5
9 33.8897 109.5
10 40.2609 109.5
11 45.0394 109.5
12 47.694 109.5
13 55.1272 109.5
14 47.635 109.6
15 55.1139 111
16 55.0997 113
17 4.824 115
18 45.0699 115
19 59.7937 115
20 44.8085 116
21 59.7719 116
22 60.1639 117
23 34.88 120
24 39.8095 120
25 45.1871 120
26 47.4278 120
27 50.1166 120
28 59.9756 120
29 69.8346 120
30 60.0726 121
31 60.091 122
32 34.8146 123
33 59.8929 124
34 30.0075 125
35 60.0779 125
36 44.9139 126
37 49.998 126
38 60.166 126
39 50.1189 132
40 47.5187 155
41 28.4971 180
42 45.9951 109.5
43 52.4767 107.57
44 65.472 111.3
45 55.0189 97.4
46 55.0247 106.75
47 47.5019 108.53
48 65.5335 109.5
49 54.9566 107.6
50 47.4817 109.5
51 54.9931 110.3
52 55.0234 111.4
53 60.044 117.2
54 60.0023 121.4
55 48.24 180
56 180.46 109
57 192.229 106
58 145.153 126
59 145.153 96.2
60 156.922 114
61 203.998 119
62 239.306 130
63 298.152 107
64 156.922 134
65 239.306 101
66 286.382 113
67 368.766 134
68 356.997 119
69 333.459 126
70 251.075 89.6
71 380.536 114
72 286.382 135
73 145.153 88.3
74 133.384 60
75 380.536 179
76 251.075 180
77 470.766 178
78 47.0766 59.9
79 47.0766 60.3
80 251.075 124
81 706.149 118
82 117.691 144
83 627.688 123
84 470.766 118
85 333.459 94.8
86 90.2301 175
87 156.922 82.8
88 117.691 77.6
89 239.306 145
90 251.075 50.8
91 380.536 104
92 262.844 84.4
93 215.768 63.3
94 215.768 61
95 298.152 173
96 192.229 173
97 82.384 50.9
98 431.535 127
99 62.7688 67.8
100 156.922 180
101 588.457 118
102 30.1731 110
103 227.537 94.8
104 431.535 173
105 34.5228 78.5
106 70.6149 138
107 70.6149 168
108 156.922 167
109 18.046 149
110 333.459 144
111 356.997 148
112 321.69 144
113 356.997 148
114 321.69 147
115 333.459 144
116 5099.96 60.8
117 1451.53 68
118 298.152 161
119 156.922 155
120 309.921 154
121 215.768 75.3
122 309.921 64.7
123 549.227 173
124 3334.59 45.8
125 863.071 123
126 549.227 123
127 470.766 166
128 380.536 166
129 203.998 139
130 66.6918 161
131 7.45379 44.9
132 25.1075 84.8
133 192.229 161
134 333.459 70.4
135 627.688 173
136 1.92229 51.6
137 21.5768 73.3
138 7.45379 174
139 470.766 132
140 145.153 69.9
141 15.6922 144
142 1922.29 97.9
143 392.305 155
144 588.457 104
145 117.691 149
146 509.996 157
147 286.382 166
148 333.459 89.8
149 392.305 79.1
150 6669.18 45.2
151 470.766 101
152 745.379 125
153 168.691 49.6
154 509.996 112
155 470.766 107
156 298.152 59.6
157 239.306 70.2
158 3923.05 100
159 3923.05 100
160 1059.22 46.3
161 1176.91 46.3
162 431.535 94.1
163 509.996 69.6
164 470.766 139

Dihedral Coeffs # harmonic

1 0.638145 -1 1
2 0.81501 -1 1
3 1.18786 -1 1
4 1.40057 -1 1
5 2.2347 -1 1
6 2.2586 -1 1
7 0.666826 1 1
8 1.27868 1 1
9 0.365679 -1 2
10 1.40057 -1 2
11 1.69933 -1 2
12 3.9914 -1 2
13 5.73614 -1 2
14 8.00669 -1 2
15 9.99044 -1 2
16 0 1 2
17 0.0999044 1 2
18 0.499522 1 2
19 0.750478 1 2
20 1.21654 1 2
21 3.9914 1 2
22 0.250956 1 3
23 0.301147 1 3
24 0.310707 1 3
25 0.604685 1 3
26 0.700287 1 3
27 0.762428 1 3
28 0.872371 1 3
29 0.901052 1 3
30 0.932122 1 3
31 0.999044 1 3
32 1.12094 1 3
33 1.30019 1 3
34 1.41491 1 3
35 1.83795 1 3
36 2.06023 1 3
37 2.27055 1 3
38 0 1 4
39 0.239006 -1 6
40 0.239006 1 6
41 0.901052 1 6
42 0.83652 -1 2
43 0.669216 1 3
44 0.167304 -1 6
45 0.0956023 1 6
46 0.239006 -1 3
47 0 1 1

Improper Coeffs # harmonic

1 20.0075 0
2 40.0151 35.2644
3 80.0302 0
4 20.0075 180
5 40.0151 -35.2644

Atoms # full

1405 118 20 0.126 0.7798722416519608 13.389602484996225 16.47416807535881 1 0 0
10814 902 63 -0.126 0.38112170299276354 8.826186973099025 4.707606510044166 0 0 0
7375 615 63 -0.126 2.686770114972109 0.5758107913889192 1.9890706004384318 0 0 0
7376 615 20 0.126 2.4987092010472867 1.5785367865237252 1.6985677182472654 0 0 0
4360 364 20 0.126 0.5878227243409524 16.180998944805204 9.644913106319969 0 -1 0
11324 944 20 0.126 0.3303528580131398 4.041488800902447 11.65549722947541 1 0 -1
10816 902 20 0.126 1.2839652483992379 6.973124609584758 4.914277557582184 0 0 0
10032 836 20 0.126 0.16751428005621144 14.050277442978336 2.381278805568338 0 0 1
7329 611 63 -0.126 5.698052138983121 7.438736856835147 3.2903321658453337 0 0 0
7330 611 20 0.126 6.210870043007034 7.159423402608335 4.255859400049045 0 0 0
1575 132 63 -0.126 5.539368465412446 2.222863713833683 5.713074049696101 1 -1 -1
5458 455 20 0.126 6.594627044665015 1.248697870284629 13.273624454394493 -1 1 1
1577 132 63 -0.126 6.85662292572437 2.125724677685021 5.266858622263818 1 -1 -1
1574 132 63 -0.126 5.101457639254765 1.3986856857532612 6.683441577432226 1 -1 -1
722 61 63 -0.126 4.514663639693135 5.382412520811956 6.941231496283945 0 -1 0
1579 132 63 -0.126 7.712196659817507 1.1574269525098602 5.7479653721135735 1 -1 -1
1583 132 63 -0.126 5.952966403090471 0.5286292541494297 7.250603288518985 1 -1 -1
7331 611 63 -0.126 6.245326242473176 7.151055644148969 2.1090584017300436 0 0 0
7332 611 20 0.126 7.272029876407741 6.637198629453352 2.0959640706202327 0 0 0
4659 389 63 -0.126 6.3806565017616865 2.301430222894953 1.59174757418386 0 0 0
7322 611 63 -0.126 5.533697683431149 7.45709751331765 1.0095968915571352 0 0 0
7321 611 20 0.126 6.020258437370182 7.28979335971258 0.08426079826061952 0 0 0
8217 685 63 -0.126 -0.049081821125983 2.9025676940242846 3.1908751983176473 1 1 0
4667 389 63 -0.126 6.670059481107052 4.066137154428509 -0.03671237476702137 0 0 0
6444 537 20 0.126 0.8494320973537235 14.564840688005575 12.208590479976596 1 -1 0
1580 132 20 0.126 8.707471814006364 0.8842938448528112 5.325945878976578 1 -1 -1
8218 685 20 0.126 0.6513457203977582 2.8855698098517726 2.331551722212543 1 1 0
1578 132 20 0.126 7.171912665878981 2.837392513188016 4.561048720185147 1 -1 -1
721 61 20 0.126 5.372235121621164 6.133540357935606 6.917360772326077 0 -1 0
8219 685 63 -0.126 0.500910295506507 2.3435044921522397 4.379113643158146 1 1 0
4660 389 20 0.126 5.964410721830097 1.8490637595120125 2.4739334162420072 0 0 0
7323 611 63 -0.126 4.246560175136216 7.995631998735787 1.1200109680857027 0 0 0
7328 611 20 0.126 4.06981418024931 8.330786102761955 4.4816964749241865 0 0 0
7327 611 63 -0.126 4.425563363266457 8.055603207652828 3.4772282983364544 0 0 0
732 61 20 0.126 3.855889670141701 5.891534646581441 5.039476753096883 0 -1 0
11208 934 20 0.126 13.339567226829617 1.0606542856618877 1.4575503388932143 1 0 0
4661 389 63 -0.126 7.459798178202838 1.6355441523039302 1.0251571338068954 0 0 0
1576 132 20 0.126 5.0185260430887615 3.0407203077912865 5.294151836258324 1 -1 -1
731 61 63 -0.126 3.5586881097290237 5.469055535443233 5.9661968230482465 0 -1 0
729 61 63 -0.126 2.268996192422585 4.955053630315177 6.175084408146137 0 -1 0
10626 886 20 0.126 7.912900373101371 4.745300612894337 3.025020090410957 0 -1 0
4662 389 20 0.126 7.854281371553672 0.6667031720204633 1.418394708655969 0 0 0
4663 389 63 -0.126 8.090669393935178 2.120056829142571 -0.0897095797001014 0 0 0
7325 611 63 -0.126 3.638815982511663 8.314705405106766 2.3532646573039377 0 0 0
724 61 20 0.126 5.169716737903722 4.174676358617263 8.44513028669239 0 -1 0
11206 934 20 0.126 11.003051789061196 0.15469498113329422 1.4248283750766573 1 0 0
1408 118 20 0.126 0.8766744623312763 15.738362048347886 15.978889383822032 1 0 0
1573 132 20 0.126 4.070389955322214 1.5134115933273196 7.002593635699912 1 -1 -1
723 61 63 -0.126 4.233048143609838 4.718789811596477 8.11113450186172 0 -1 0
727 61 63 -0.126 1.952592064631522 4.293622942024 7.3348626913066886 0 -1 0
7710 643 20 0.126 12.572042426327886 16.780638939410608 17.03702869851153 0 0 0
7648 638 20 0.126 9.173444479428307 4.387007370959897 6.613424290095911 -1 0 1
7650 638 20 0.126 8.618572771597565 6.683632369334011 7.301703243856653 -1 0 1
1844 154 20 0.126 2.608052043815801 8.339446163050454 6.462174070172798 0 0 0
1196 100 20 0.126 16.885370085936607 0.6113877552427649 14.771105885106731 -1 0 1
1581 132 63 -0.126 7.267889320267742 0.34552667924961333 6.787345750230871 1 -1 -1
7374 615 20 0.126 3.3414928058327322 1.2336673757331167 3.909508794907599 0 0 0
8209 685 20 0.126 0.056045659651940694 1.7081304161009023 6.365192835765407 1 1 0
11323 944 63 -0.126 0.000451571504505921 3.5583346026057745 12.565184001633728 1 0 -1
6063 506 63 -0.126 16.74845790696588 15.925794980785394 6.524492941260497 -1 0 0
10623 886 63 -0.126 9.617142334370293 3.722380490517489 3.2841563397974656 0 -1 0
11205 934 63 -0.126 11.643005873039352 0.1685470285103094 2.333874178270701 1 0 0
10621 886 20 0.126 11.344257831904843 2.7837154648628255 4.07929869056922 0 -1 0
10622 886 63 -0.126 10.797571838474232 3.6881606951375616 3.949413807406067 0 -1 0
10632 886 20 0.126 12.357058568345586 4.6281398752818195 4.867633939918652 0 -1 0
10631 886 63 -0.126 11.349492721366753 4.758424274817873 4.5284490399304875 0 -1 0
8220 685 20 0.126 1.3766489910789617 1.62810860483063 4.363955930686564 1 1 0
10629 886 63 -0.126 10.771081256032105 6.046274906092553 4.257573548841101 0 -1 0
607 51 63 -0.126 13.564992413020088 6.558518717578165 6.880400092625654 0 0 0
609 51 63 -0.126 14.871349892611498 6.13622243135518 6.662808692181764 0 0 0
605 51 63 -0.126 12.61917865260791 5.734742195031192 7.4626366619313576 0 0 0
603 51 63 -0.126 12.936862083123154 4.373441383771131 7.858244833754106 0 0 0
606 51 20 0.126 11.68287473858013 6.191266316848257 7.806553115844252 0 0 0
10627 886 63 -0.126 9.544762685626331 6.131400244269303 3.518588850004676 0 -1 0
608 51 20 0.126 13.24782378972431 7.546441242360728 6.837986765965137 0 0 0
10630 886 20 0.126 11.338043749832432 6.852804323868229 4.622607457127494 0 -1 0
4609 385 20 0.126 16.85953951263643 10.194419955009726 12.793953309615613 0 0 -1
11207 934 63 -0.126 12.894765983647597 0.6574767978731489 2.389253565943326 1 0 0
7373 615 63 -0.126 3.088615651754277 0.3656873769560729 3.3000258622729968 0 0 0
10628 886 20 0.126 8.968344568472235 7.0535953345256495 3.49035826527065 0 -1 0
4613 385 63 -0.126 17.14740327315086 11.578743713657156 15.81170222681126 0 0 -1
10625 886 63 -0.126 8.958097647405197 4.871405805151126 3.1291340291903627 0 -1 0
604 51 20 0.126 12.227580389537605 3.7823433472214627 8.429238733426617 0 0 0
4256 355 20 0.126 13.711158989870759 6.490557282826739 4.011594135097148 0 0 -1
11200 934 20 0.126 13.47729666962988 0.4308498171130738 5.636810057558709 1 0 0
5456 455 20 0.126 8.882038250896823 0.21966425570503278 13.635753962732094 -1 1 1
11198 934 63 -0.126 13.526604966734777 0.7027550267590662 3.578636822227917 1 0 0
11197 934 20 0.126 14.580923665090907 0.9711444727727807 3.564666599244555 1 0 0
11201 934 63 -0.126 11.617182345124471 -0.09567430280011606 4.749734880868931 1 0 0
11199 934 63 -0.126 12.935131150895797 0.30308307514724125 4.757257315824451 1 0 0
9349 780 20 0.126 16.690064549130657 1.5145472619529325 6.63086191170744 -1 -1 1
9739 812 63 -0.126 15.633988991231247 4.628723896691844 2.9169918756332467 -1 0 1
9740 812 20 0.126 15.15766925638003 5.285464963958822 3.6022312530681515 -1 0 1
4258 355 20 0.126 15.35137709496088 8.260668115440016 3.860573073072012 0 0 -1
4257 355 63 -0.126 14.464960420760832 8.380261975285803 3.297233737843183 0 0 -1
610 51 20 0.126 15.656591016893795 6.791255087350364 6.409600415306183 0 0 0
9793 817 20 0.126 15.058968695110476 9.381471114573152 6.570240273140421 -1 0 0
9530 795 63 -0.126 1.4392744320136326 5.370340017864362 0.20170227769248117 0 0 0
2504 209 20 0.126 0.607762896508951 9.72606910448345 0.8670442664944593 0 2 0
4218 352 20 0.126 14.373582185621087 -0.0987516163274691 8.049634050478494 -1 0 0
10156 847 20 0.126 3.3788103561797396 17.20686251422981 10.806432189878983 0 0 0
7707 643 63 -0.126 12.993282373087835 17.009418917472505 14.948233308056219 0 0 0
602 51 63 -0.126 14.192999130602091 3.983327755350662 7.515732329791912 0 0 0
611 51 63 -0.126 15.124861109086215 4.789409546369951 6.903569194827009 0 0 0
612 51 20 0.126 16.149006250033743 4.403990103307471 6.70116305263867 0 0 0
6160 514 20 0.126 6.033285938140797 10.262789428347851 1.0623233303142865 0 -1 1
5818 485 20 0.126 1.2985994021144356 15.176320845378507 4.918327644016987 0 -2 0
9737 812 63 -0.126 16.385137921987724 3.5714291540271828 3.4182560304950034 -1 0 1
10024 836 20 0.126 4.223314085865859 12.890836061799204 2.3024196299740405 0 0 1
11971 998 63 -0.126 7.615105267039744 9.845118993029308 4.391958064417542 -1 -1 0
11972 998 20 0.126 6.55304785742145 10.228969995223006 4.29011625308236 -1 -1 0
2226 186 20 0.126 16.981501858336156 9.779680425585282 1.65764786402903 -1 -1 1
6178 515 20 0.126 9.18784229262939 16.6158388270332 13.327060620801195 1 0 0
10023 836 63 -0.126 3.2371883820460448 12.660875511943583 2.69576459984777 0 0 1
1838 154 63 -0.126 4.107369642877828 10.866905875103118 8.927066325795632 0 0 0
6162 514 20 0.126 6.993314757811585 12.467721695353456 1.6974037593788898 0 -1 1
1837 154 20 0.126 4.554684804627336 11.381387215123265 9.862934298787115 0 0 0
7326 611 20 0.126 2.8420979171207668 9.049859340931738 2.4586770994096594 0 0 0
2824 236 20 0.126 7.053540054876853 16.53492970406633 4.39906224815476 1 0 0
10029 836 63 -0.126 0.7441337942884726 12.726036759537442 3.9870173795443185 0 0 1
10027 836 63 -0.126 1.8094346498967884 11.996356236452002 4.44526117092155 0 0 1
2827 236 63 -0.126 8.293604417635082 13.483071152608572 4.96642238777195 1 0 0
10028 836 20 0.126 1.5224324944097671 11.181604435418866 5.040515758728264 0 0 1
2828 236 20 0.126 9.224158431584302 12.97390935994905 4.778010117224184 1 0 0
2830 236 20 0.126 7.2370545037152025 11.865595478272775 5.877535760252259 1 0 0
2829 236 63 -0.126 7.208634642629645 12.755784276626159 5.319319028132087 1 0 0
2825 236 63 -0.126 8.260312869462949 14.804283515218902 4.697469013523543 1 0 0
2822 236 63 -0.126 5.79871969867568 14.738019431837222 4.9133401694006125 1 0 0
2823 236 63 -0.126 7.0115402937367275 15.450274057091058 4.659928313385141 1 0 0
2831 236 63 -0.126 5.940700538123164 13.435794369417867 5.354464073586225 1 0 0
2821 236 20 0.126 4.7839540768041 15.083559970854358 4.747786114402383 1 0 0
6164 514 20 0.126 6.478100621153345 14.602482387882729 0.28216650082801736 0 -1 1
6161 514 63 -0.126 6.26119170214624 12.47795891397443 0.7899848376287921 0 -1 1
1847 154 63 -0.126 2.6978872769878164 10.861948600368997 8.768990322585793 0 0 0
6163 514 63 -0.126 6.0336908004041945 13.60963880954444 -0.05226038250536472 0 -1 1
2832 236 20 0.126 5.020749381841516 12.843643240472657 5.5557991023134585 1 0 0
10025 836 63 -0.126 3.0316440204798427 12.02094040812378 3.882306929508646 0 0 1
11970 998 20 0.126 8.079546462834296 10.387014362718599 2.3929813029631477 -1 -1 0
10026 836 20 0.126 3.878581383412883 11.663642487054604 4.4571983786750184 0 0 1
6145 513 20 0.126 3.4562481508404326 16.593385410247365 1.7257628029790737 1 0 1
1841 154 63 -0.126 4.430863255379165 9.192045774158249 7.241312467228648 0 0 0
1839 154 63 -0.126 4.971832024643055 10.070969653145294 8.173114106950857 0 0 0
1840 154 20 0.126 6.072797064194344 10.31302245509329 8.030809804452877 0 0 0
6774 565 20 0.126 9.312391252569112 6.9104963772913415 1.0195193335332755 0 -1 0
10817 902 63 -0.126 -0.03708580296486948 6.952951197632538 3.198878428337128 0 0 0
11969 998 63 -0.126 8.448612170367317 10.111401037406193 3.3601178221593115 -1 -1 0
8961 747 63 -0.126 10.100576641273303 17.124196468756182 9.751248900863157 0 -1 0
10062 839 20 0.126 10.631479545065774 12.23571353064583 1.8064516390380227 0 0 0
10061 839 63 -0.126 10.323849355153001 12.865817526133037 0.8909573168054182 0 0 0
8382 699 20 0.126 8.25206356254624 17.0014028980888 16.18643248891884 0 -1 0
11974 998 20 0.126 7.374371619392963 8.9780209101405 6.283571317757615 -1 -1 0
11973 998 63 -0.126 8.111501305720315 9.29151368418251 5.5240227371611565 -1 -1 0
1845 154 63 -0.126 2.2245459492240522 10.006960549437725 7.79051906565787 0 0 0
1843 154 63 -0.126 3.0733421883324876 9.11372691158942 7.149671165381221 0 0 0
1842 154 20 0.126 5.107934051620713 8.76799256022153 6.4669659009495755 0 0 0
10163 847 63 -0.126 5.712882773338284 17.22030710512613 8.342624604163914 0 0 0
244 21 20 0.126 4.446078080536898 16.931126827634554 13.43345411617236 1 -1 -1
10022 836 63 -0.126 2.169904772752609 13.366265321483139 2.066270018617546 0 0 1
6540 545 20 0.126 15.930295854740336 12.676644342129396 5.242515412097357 0 -1 -1
10164 847 20 0.126 6.547777682366878 16.583353692418886 7.93809128783975 0 0 0
5119 427 63 -0.126 15.626637200971329 16.955419764065944 1.3142260261145142 -1 -1 -1
4255 355 63 -0.126 13.626775115973475 7.284290760168622 3.246646029133427 0 0 -1
11967 998 63 -0.126 9.839049779324478 9.93585328565046 3.438777780235791 -1 -1 0
11966 998 63 -0.126 10.370465712555006 9.384100088180633 4.634860233798978 -1 -1 0
11965 998 20 0.126 11.448537439112684 9.282383186012176 4.797634413878095 -1 -1 0
11975 998 63 -0.126 9.487803659353503 9.052857500949326 5.664382421769304 -1 -1 0
2826 236 20 0.126 9.228827891918222 15.342398194113754 4.638245216766557 1 0 0
814 68 20 0.126 13.238945585079534 16.434471963820233 4.423520036583141 0 -1 0
4252 355 20 0.126 11.666692829931987 8.382153453164092 0.7341763568806419 0 0 -1
4251 355 63 -0.126 12.458045019013293 8.253784918308773 1.4411330992711913 0 0 -1
4253 355 63 -0.126 12.60335686673125 7.1780639250232765 2.279580039606592 0 0 -1
4254 355 20 0.126 12.006421201020714 6.295409983367619 2.180897831435199 0 0 -1
9796 817 20 0.126 13.126362560311279 10.428468920255607 7.615315104530017 -1 0 0
6144 512 20 0.126 14.146254681201373 4.64612381413817 16.902547580687198 0 0 0
810 68 20 0.126 12.723238619659039 12.939201452596341 1.8813370721197653 0 -1 0
812 68 20 0.126 12.717871726479677 15.315621753271378 2.150821989262065 0 -1 0
4657 389 20 0.126 5.046435312220704 4.038354801312531 1.487605775632578 0 0 0
9794 817 63 -0.126 15.163542815716792 9.817801513546357 7.493134591969228 -1 0 0
9539 795 63 -0.126 2.7214924513184613 4.766226193021595 0.08436024258419528 0 0 0
11968 998 20 0.126 10.563610159104012 9.875117840269844 2.592992211328305 -1 -1 0
8953 747 20 0.126 12.577387282995277 17.018002403714963 7.334193201517272 0 -1 0
809 68 63 -0.126 12.814586398540003 13.353139731283289 2.890618558072964 0 -1 0
807 68 63 -0.126 12.964344356642007 12.535955776604865 4.014824155066358 0 -1 0
808 68 20 0.126 12.908389748229029 11.522237192563166 3.8730033482768706 0 -1 0
4249 355 20 0.126 13.286564942455946 10.167139400065585 0.7333666704376303 0 0 -1
806 68 63 -0.126 13.13870914459419 13.166511584770365 5.292349534069069 0 -1 0
805 68 20 0.126 13.447663132764157 12.495954895826838 6.1213645978574815 0 -1 0
4259 355 63 -0.126 14.251885669464924 9.479989549038752 2.467634157016296 0 0 -1
6065 506 63 -0.126 15.846861250785302 16.883282585238465 6.7420449088929075 -1 0 0
4250 355 63 -0.126 13.214865374557833 9.430035899717954 1.5225678020016271 0 0 -1
4260 355 20 0.126 14.905649279175508 10.318635869593814 2.435863250391682 0 0 -1
815 68 63 -0.126 13.149380627107831 14.499630067273673 5.4432211719614045 0 -1 0
9795 817 63 -0.126 14.053472460474687 10.537559865218546 8.036354962650995 -1 0 0
9798 817 20 0.126 13.235890568319988 11.630445062026755 9.626413818172493 -1 0 0
9738 812 20 0.126 16.539821374995803 3.595161138840326 4.486236106748511 -1 0 1
811 68 63 -0.126 12.8553305104013 14.761288630749723 3.043041840042825 0 -1 0
9804 817 20 0.126 16.909745693731093 8.858879491700193 8.089757617461261 -1 0 0
813 68 63 -0.126 13.030719913791891 15.358194232758578 4.341993611036441 0 -1 0
816 68 20 0.126 13.261941989422397 14.901207253446055 6.470305044232822 0 -1 0
752 63 20 0.126 7.843345424477085 6.734965692993127 16.720307463580923 1 0 0
9803 817 63 -0.126 16.317652799623588 9.775325335661483 8.285135389426204 -1 0 0
6538 545 20 0.126 16.02127468865219 14.42260046832446 3.719940981554856 0 -1 -1
6159 514 63 -0.126 5.734641063370006 11.231593595091857 0.5487056102626455 0 -1 1
8964 747 20 0.126 12.048297998272531 16.213102991912457 9.604873932383978 0 -1 0
6062 506 63 -0.126 16.926685383161626 14.827986554814919 7.421444522518088 -1 0 0
6539 545 63 -0.126 16.615215310050417 12.635506818102204 4.483050035125758 0 -1 -1
4658 389 63 -0.126 6.0038914101078875 3.5669584481963836 1.1225078097569248 0 0 0
11976 998 20 0.126 9.93691661716936 8.747938996351001 6.551556643094912 -1 -1 0
1710 143 20 0.126 15.971254692741969 12.838939975916498 0.5080095831792696 -1 0 0
10813 902 20 0.126 0.8814695164271108 9.287024094005284 5.5037334055369795 0 0 0
6175 515 63 -0.126 9.430711754600106 14.57899765414031 12.626138507847699 1 0 0
5742 479 20 0.126 9.336053274797754 12.645371075599602 8.431505054066063 0 0 -1
6537 545 63 -0.126 16.787230345636647 13.805698327898181 3.7063582366127084 0 -1 -1
4671 390 63 -0.126 5.287949033572756 4.778480725673866 16.454077121305378 0 0 0
6176 515 20 0.126 10.538246530595764 14.589564221057108 12.746614948709409 1 0 0
8962 747 20 0.126 9.864366180103193 16.961835509544173 10.773212719300961 0 -1 0
9797 817 63 -0.126 14.187720632962597 11.205105186545302 9.190659515768719 -1 0 0
6072 506 20 0.126 16.128861118080092 13.888518132737586 9.306224352990517 -1 0 0
5120 427 20 0.126 15.355460566230196 16.15497368995302 1.9405334312909233 -1 -1 -1
5052 421 20 0.126 10.893963742523106 11.633753474493455 16.75233296776842 -1 -1 0
7484 624 20 0.126 9.065483682637595 0.5077304634074825 10.521661810463637 -1 0 -1
6179 515 63 -0.126 7.276313241680438 15.675607433750145 12.888569398757488 1 0 0
8816 735 20 0.126 15.812007766202841 17.07548503390531 15.898678698162644 -1 0 0
10031 836 63 -0.126 0.9338124787146838 13.405404572072257 2.7777801313188584 0 0 1
6433 537 20 0.126 2.084507452909883 15.776648930743297 13.9469149817294 1 -1 0
6142 512 20 0.126 15.832207025769174 6.456260483706098 16.921380672036005 0 0 0
5460 455 20 0.126 6.334070395304543 3.569496170203829 13.50449161436213 -1 1 1
8381 699 63 -0.126 8.96666816322679 16.604880244111428 16.957705218280463 0 -1 0
4469 373 63 -0.126 0.07662665778228994 8.214703397341934 12.56676813570126 -1 0 0
3266 273 63 -0.126 17.205899038670697 16.438833000490725 13.193118448898554 0 0 0
11327 944 63 -0.126 0.2790463165991709 2.0059147060765192 14.337560681891002 1 0 -1
5449 455 20 0.126 8.404353049529181 5.052229506716766 13.490641150793165 -1 1 1
4670 390 63 -0.126 4.134035086694361 4.472647329073105 15.722116180882558 0 0 0
11326 944 20 0.126 1.4840389449501254 2.0062207113037203 12.647653048181109 1 0 -1
730 61 20 0.126 1.4753629770406305 5.113805709854779 5.4161698085419605 0 -1 0
9734 812 63 -0.126 16.465039452183664 2.5230559708861984 1.3569429423034411 -1 0 1
4679 390 63 -0.126 3.2139670826326197 3.4623639558049533 16.176395957500652 0 0 0
11325 944 63 -0.126 0.6214948967461164 2.4160814439856195 13.13421123268904 1 0 -1
2227 186 63 -0.126 16.576224003180478 8.051119823305234 0.43262569547785845 -1 -1 1
3273 273 63 -0.126 16.94326778604771 14.169917662186105 12.326337494487667 0 0 0
725 61 63 -0.126 2.9293667762036955 4.170147009670214 8.310711111397989 0 -1 0
726 61 20 0.126 2.619380490836066 3.746779945070788 9.302348172498954 0 -1 0
9540 795 20 0.126 3.690292632880039 5.267042330795467 0.23087707057594015 0 0 0
2382 199 20 0.126 1.5207168843256824 1.0760464240321819 8.357908180724204 0 1 1
2383 199 63 -0.126 3.1000401585911934 0.49464627795434846 9.686720580787712 0 1 1
2381 199 63 -0.126 1.7715330571045556 0.4445103610956359 9.206034509755652 0 1 1